1775079
/opt/cray/pe/gcc/11.2.0/snos/lib64:/opt/cray/pe/papi/6.0.0.15/lib64:/pdc/software/22.06/eb/software/ncurses/6.3/lib:/opt/cray/libfabric/1.15.0.0/lib64
------------------------------------------------------------
          Invoking FHI-aims ...

          When using FHI-aims, please cite the following reference:

            Volker Blum, Ralf Gehrke, Felix Hanke, Paula Havu,
            Ville Havu, Xinguo Ren, Karsten Reuter, and Matthias Scheffler,
            'Ab Initio Molecular Simulations with Numeric Atom-Centered Orbitals',
            Computer Physics Communications 180, 2175-2196 (2009)

          In addition, many other developments in FHI-aims are likely important for
          your particular application. A partial list of references is given at the end of
          this file. Thank you for giving credit to the authors of these developments.

          For any questions about FHI-aims, please visit our slack channel at

            https://fhi-aims.slack.com

          and our main development and support site at

            https://aims-git.rz-berlin.mpg.de .

          The latter site, in particular, has a wiki to collect information, as well
          as an issue tracker to log discussions, suggest improvements, and report issues
          or bugs. https://aims-git.rz-berlin.mpg.de is also the main development site
          of the project and all new and updated code versions can be obtained there.
          Please send an email to aims-coordinators@fhi-berlin.mpg.de and we will add
          you to these sites. They are for you and everyone is welcome there.

------------------------------------------------------------



  Date     :  20230621, Time     :  173319.570
  Time zero on CPU 1             :   0.787677000000000E+00  s.
  Internal wall clock time zero  :           456600799.570  s.

  FHI-aims created a unique identifier for this run for later identification
  aims_uuid : D5CDAEC9-0D54-4999-A707-D1FD41B5AD7C

  Build configuration of the current instance of FHI-aims
  -------------------------------------------------------
  FHI-aims version      : 221103
  Commit number         : cd81235a3
  CMake host system     : Linux-5.3.18-150300.59.76_11.0.53-cray_shasta_c
  CMake version         : 3.17.0
  Fortran compiler      : /opt/cray/pe/craype/2.7.16/bin/ftn (GNU) version 11.2.0
  Fortran compiler flags: -O3 -ffree-line-length-none -fallow-argument-mismatch -march=znver2 -mtune=znver2 -mfma -mavx2 -m3dnow -fomit-frame-pointer
  C compiler            : /opt/cray/pe/craype/2.7.16/bin/cc (GNU) version 11.2.0
  C compiler flags      : -O3 -funroll-loops -ffast-math
  C++ compiler          : /opt/cray/pe/craype/2.7.16/bin/CC (GNU) version 11.2.0
  C++ compiler flags    : -O3 -funroll-loops -ffast-math
  HIP compiler          :
  HIP compiler flags    :
  HIP GPU arch          :
  ELPA2 kernel          : AVX2
  Using MPI
  Using ScaLAPACK
  Using LibXC
  Using i-PI
  Using RLSY
  Linking against:

  Using      384 parallel tasks.
  Task        0 on host nid001319 reporting.
  Task        1 on host nid001319 reporting.
  Task        2 on host nid001319 reporting.
  Task        3 on host nid001319 reporting.
  Task        4 on host nid001319 reporting.
  Task        5 on host nid001319 reporting.
  Task        6 on host nid001319 reporting.
  Task        7 on host nid001319 reporting.
  Task        8 on host nid001319 reporting.
  Task        9 on host nid001319 reporting.
  Task       10 on host nid001319 reporting.
  Task       11 on host nid001319 reporting.
  Task       12 on host nid001319 reporting.
  Task       13 on host nid001319 reporting.
  Task       14 on host nid001319 reporting.
  Task       15 on host nid001319 reporting.
  Task       16 on host nid001319 reporting.
  Task       17 on host nid001319 reporting.
  Task       18 on host nid001319 reporting.
  Task       19 on host nid001319 reporting.
  Task       20 on host nid001319 reporting.
  Task       21 on host nid001319 reporting.
  Task       22 on host nid001319 reporting.
  Task       23 on host nid001319 reporting.
  Task       24 on host nid001319 reporting.
  Task       25 on host nid001319 reporting.
  Task       26 on host nid001319 reporting.
  Task       27 on host nid001319 reporting.
  Task       28 on host nid001319 reporting.
  Task       29 on host nid001319 reporting.
  Task       30 on host nid001319 reporting.
  Task       31 on host nid001319 reporting.
  Task       32 on host nid001319 reporting.
  Task       33 on host nid001319 reporting.
  Task       34 on host nid001319 reporting.
  Task       35 on host nid001319 reporting.
  Task       36 on host nid001319 reporting.
  Task       37 on host nid001319 reporting.
  Task       38 on host nid001319 reporting.
  Task       39 on host nid001319 reporting.
  Task       40 on host nid001319 reporting.
  Task       41 on host nid001319 reporting.
  Task       42 on host nid001319 reporting.
  Task       43 on host nid001319 reporting.
  Task       44 on host nid001319 reporting.
  Task       45 on host nid001319 reporting.
  Task       46 on host nid001319 reporting.
  Task       47 on host nid001319 reporting.
  Task       48 on host nid001319 reporting.
  Task       49 on host nid001319 reporting.
  Task       50 on host nid001319 reporting.
  Task       51 on host nid001319 reporting.
  Task       52 on host nid001319 reporting.
  Task       53 on host nid001319 reporting.
  Task       54 on host nid001319 reporting.
  Task       55 on host nid001319 reporting.
  Task       56 on host nid001319 reporting.
  Task       57 on host nid001319 reporting.
  Task       58 on host nid001319 reporting.
  Task       59 on host nid001319 reporting.
  Task       60 on host nid001319 reporting.
  Task       61 on host nid001319 reporting.
  Task       62 on host nid001319 reporting.
  Task       63 on host nid001319 reporting.
  Task       64 on host nid001319 reporting.
  Task       65 on host nid001319 reporting.
  Task       66 on host nid001319 reporting.
  Task       67 on host nid001319 reporting.
  Task       68 on host nid001319 reporting.
  Task       69 on host nid001319 reporting.
  Task       70 on host nid001319 reporting.
  Task       71 on host nid001319 reporting.
  Task       72 on host nid001319 reporting.
  Task       73 on host nid001319 reporting.
  Task       74 on host nid001319 reporting.
  Task       75 on host nid001319 reporting.
  Task       76 on host nid001319 reporting.
  Task       77 on host nid001319 reporting.
  Task       78 on host nid001319 reporting.
  Task       79 on host nid001319 reporting.
  Task       80 on host nid001319 reporting.
  Task       81 on host nid001319 reporting.
  Task       82 on host nid001319 reporting.
  Task       83 on host nid001319 reporting.
  Task       84 on host nid001319 reporting.
  Task       85 on host nid001319 reporting.
  Task       86 on host nid001319 reporting.
  Task       87 on host nid001319 reporting.
  Task       88 on host nid001319 reporting.
  Task       89 on host nid001319 reporting.
  Task       90 on host nid001319 reporting.
  Task       91 on host nid001319 reporting.
  Task       92 on host nid001319 reporting.
  Task       93 on host nid001319 reporting.
  Task       94 on host nid001319 reporting.
  Task       95 on host nid001319 reporting.
  Task       96 on host nid001319 reporting.
  Task       97 on host nid001319 reporting.
  Task       98 on host nid001319 reporting.
  Task       99 on host nid001319 reporting.
  Task      100 on host nid001319 reporting.
  Task      101 on host nid001319 reporting.
  Task      102 on host nid001319 reporting.
  Task      103 on host nid001319 reporting.
  Task      104 on host nid001319 reporting.
  Task      105 on host nid001319 reporting.
  Task      106 on host nid001319 reporting.
  Task      107 on host nid001319 reporting.
  Task      108 on host nid001319 reporting.
  Task      109 on host nid001319 reporting.
  Task      110 on host nid001319 reporting.
  Task      111 on host nid001319 reporting.
  Task      112 on host nid001319 reporting.
  Task      113 on host nid001319 reporting.
  Task      114 on host nid001319 reporting.
  Task      115 on host nid001319 reporting.
  Task      116 on host nid001319 reporting.
  Task      117 on host nid001319 reporting.
  Task      118 on host nid001319 reporting.
  Task      119 on host nid001319 reporting.
  Task      120 on host nid001319 reporting.
  Task      121 on host nid001319 reporting.
  Task      122 on host nid001319 reporting.
  Task      123 on host nid001319 reporting.
  Task      124 on host nid001319 reporting.
  Task      125 on host nid001319 reporting.
  Task      126 on host nid001319 reporting.
  Task      127 on host nid001319 reporting.
  Task      128 on host nid001426 reporting.
  Task      129 on host nid001426 reporting.
  Task      130 on host nid001426 reporting.
  Task      131 on host nid001426 reporting.
  Task      132 on host nid001426 reporting.
  Task      133 on host nid001426 reporting.
  Task      134 on host nid001426 reporting.
  Task      135 on host nid001426 reporting.
  Task      136 on host nid001426 reporting.
  Task      137 on host nid001426 reporting.
  Task      138 on host nid001426 reporting.
  Task      139 on host nid001426 reporting.
  Task      140 on host nid001426 reporting.
  Task      141 on host nid001426 reporting.
  Task      142 on host nid001426 reporting.
  Task      143 on host nid001426 reporting.
  Task      144 on host nid001426 reporting.
  Task      145 on host nid001426 reporting.
  Task      146 on host nid001426 reporting.
  Task      147 on host nid001426 reporting.
  Task      148 on host nid001426 reporting.
  Task      149 on host nid001426 reporting.
  Task      150 on host nid001426 reporting.
  Task      151 on host nid001426 reporting.
  Task      152 on host nid001426 reporting.
  Task      153 on host nid001426 reporting.
  Task      154 on host nid001426 reporting.
  Task      155 on host nid001426 reporting.
  Task      156 on host nid001426 reporting.
  Task      157 on host nid001426 reporting.
  Task      158 on host nid001426 reporting.
  Task      159 on host nid001426 reporting.
  Task      160 on host nid001426 reporting.
  Task      161 on host nid001426 reporting.
  Task      162 on host nid001426 reporting.
  Task      163 on host nid001426 reporting.
  Task      164 on host nid001426 reporting.
  Task      165 on host nid001426 reporting.
  Task      166 on host nid001426 reporting.
  Task      167 on host nid001426 reporting.
  Task      168 on host nid001426 reporting.
  Task      169 on host nid001426 reporting.
  Task      170 on host nid001426 reporting.
  Task      171 on host nid001426 reporting.
  Task      172 on host nid001426 reporting.
  Task      173 on host nid001426 reporting.
  Task      174 on host nid001426 reporting.
  Task      175 on host nid001426 reporting.
  Task      176 on host nid001426 reporting.
  Task      177 on host nid001426 reporting.
  Task      178 on host nid001426 reporting.
  Task      179 on host nid001426 reporting.
  Task      180 on host nid001426 reporting.
  Task      181 on host nid001426 reporting.
  Task      182 on host nid001426 reporting.
  Task      183 on host nid001426 reporting.
  Task      184 on host nid001426 reporting.
  Task      185 on host nid001426 reporting.
  Task      186 on host nid001426 reporting.
  Task      187 on host nid001426 reporting.
  Task      188 on host nid001426 reporting.
  Task      189 on host nid001426 reporting.
  Task      190 on host nid001426 reporting.
  Task      191 on host nid001426 reporting.
  Task      192 on host nid001426 reporting.
  Task      193 on host nid001426 reporting.
  Task      194 on host nid001426 reporting.
  Task      195 on host nid001426 reporting.
  Task      196 on host nid001426 reporting.
  Task      197 on host nid001426 reporting.
  Task      198 on host nid001426 reporting.
  Task      199 on host nid001426 reporting.
  Task      200 on host nid001426 reporting.
  Task      201 on host nid001426 reporting.
  Task      202 on host nid001426 reporting.
  Task      203 on host nid001426 reporting.
  Task      204 on host nid001426 reporting.
  Task      205 on host nid001426 reporting.
  Task      206 on host nid001426 reporting.
  Task      207 on host nid001426 reporting.
  Task      208 on host nid001426 reporting.
  Task      209 on host nid001426 reporting.
  Task      210 on host nid001426 reporting.
  Task      211 on host nid001426 reporting.
  Task      212 on host nid001426 reporting.
  Task      213 on host nid001426 reporting.
  Task      214 on host nid001426 reporting.
  Task      215 on host nid001426 reporting.
  Task      216 on host nid001426 reporting.
  Task      217 on host nid001426 reporting.
  Task      218 on host nid001426 reporting.
  Task      219 on host nid001426 reporting.
  Task      220 on host nid001426 reporting.
  Task      221 on host nid001426 reporting.
  Task      222 on host nid001426 reporting.
  Task      223 on host nid001426 reporting.
  Task      224 on host nid001426 reporting.
  Task      225 on host nid001426 reporting.
  Task      226 on host nid001426 reporting.
  Task      227 on host nid001426 reporting.
  Task      228 on host nid001426 reporting.
  Task      229 on host nid001426 reporting.
  Task      230 on host nid001426 reporting.
  Task      231 on host nid001426 reporting.
  Task      232 on host nid001426 reporting.
  Task      233 on host nid001426 reporting.
  Task      234 on host nid001426 reporting.
  Task      235 on host nid001426 reporting.
  Task      236 on host nid001426 reporting.
  Task      237 on host nid001426 reporting.
  Task      238 on host nid001426 reporting.
  Task      239 on host nid001426 reporting.
  Task      240 on host nid001426 reporting.
  Task      241 on host nid001426 reporting.
  Task      242 on host nid001426 reporting.
  Task      243 on host nid001426 reporting.
  Task      244 on host nid001426 reporting.
  Task      245 on host nid001426 reporting.
  Task      246 on host nid001426 reporting.
  Task      247 on host nid001426 reporting.
  Task      248 on host nid001426 reporting.
  Task      249 on host nid001426 reporting.
  Task      250 on host nid001426 reporting.
  Task      251 on host nid001426 reporting.
  Task      252 on host nid001426 reporting.
  Task      253 on host nid001426 reporting.
  Task      254 on host nid001426 reporting.
  Task      255 on host nid001426 reporting.
  Task      256 on host nid001476 reporting.
  Task      257 on host nid001476 reporting.
  Task      258 on host nid001476 reporting.
  Task      259 on host nid001476 reporting.
  Task      260 on host nid001476 reporting.
  Task      261 on host nid001476 reporting.
  Task      262 on host nid001476 reporting.
  Task      263 on host nid001476 reporting.
  Task      264 on host nid001476 reporting.
  Task      265 on host nid001476 reporting.
  Task      266 on host nid001476 reporting.
  Task      267 on host nid001476 reporting.
  Task      268 on host nid001476 reporting.
  Task      269 on host nid001476 reporting.
  Task      270 on host nid001476 reporting.
  Task      271 on host nid001476 reporting.
  Task      272 on host nid001476 reporting.
  Task      273 on host nid001476 reporting.
  Task      274 on host nid001476 reporting.
  Task      275 on host nid001476 reporting.
  Task      276 on host nid001476 reporting.
  Task      277 on host nid001476 reporting.
  Task      278 on host nid001476 reporting.
  Task      279 on host nid001476 reporting.
  Task      280 on host nid001476 reporting.
  Task      281 on host nid001476 reporting.
  Task      282 on host nid001476 reporting.
  Task      283 on host nid001476 reporting.
  Task      284 on host nid001476 reporting.
  Task      285 on host nid001476 reporting.
  Task      286 on host nid001476 reporting.
  Task      287 on host nid001476 reporting.
  Task      288 on host nid001476 reporting.
  Task      289 on host nid001476 reporting.
  Task      290 on host nid001476 reporting.
  Task      291 on host nid001476 reporting.
  Task      292 on host nid001476 reporting.
  Task      293 on host nid001476 reporting.
  Task      294 on host nid001476 reporting.
  Task      295 on host nid001476 reporting.
  Task      296 on host nid001476 reporting.
  Task      297 on host nid001476 reporting.
  Task      298 on host nid001476 reporting.
  Task      299 on host nid001476 reporting.
  Task      300 on host nid001476 reporting.
  Task      301 on host nid001476 reporting.
  Task      302 on host nid001476 reporting.
  Task      303 on host nid001476 reporting.
  Task      304 on host nid001476 reporting.
  Task      305 on host nid001476 reporting.
  Task      306 on host nid001476 reporting.
  Task      307 on host nid001476 reporting.
  Task      308 on host nid001476 reporting.
  Task      309 on host nid001476 reporting.
  Task      310 on host nid001476 reporting.
  Task      311 on host nid001476 reporting.
  Task      312 on host nid001476 reporting.
  Task      313 on host nid001476 reporting.
  Task      314 on host nid001476 reporting.
  Task      315 on host nid001476 reporting.
  Task      316 on host nid001476 reporting.
  Task      317 on host nid001476 reporting.
  Task      318 on host nid001476 reporting.
  Task      319 on host nid001476 reporting.
  Task      320 on host nid001476 reporting.
  Task      321 on host nid001476 reporting.
  Task      322 on host nid001476 reporting.
  Task      323 on host nid001476 reporting.
  Task      324 on host nid001476 reporting.
  Task      325 on host nid001476 reporting.
  Task      326 on host nid001476 reporting.
  Task      327 on host nid001476 reporting.
  Task      328 on host nid001476 reporting.
  Task      329 on host nid001476 reporting.
  Task      330 on host nid001476 reporting.
  Task      331 on host nid001476 reporting.
  Task      332 on host nid001476 reporting.
  Task      333 on host nid001476 reporting.
  Task      334 on host nid001476 reporting.
  Task      335 on host nid001476 reporting.
  Task      336 on host nid001476 reporting.
  Task      337 on host nid001476 reporting.
  Task      338 on host nid001476 reporting.
  Task      339 on host nid001476 reporting.
  Task      340 on host nid001476 reporting.
  Task      341 on host nid001476 reporting.
  Task      342 on host nid001476 reporting.
  Task      343 on host nid001476 reporting.
  Task      344 on host nid001476 reporting.
  Task      345 on host nid001476 reporting.
  Task      346 on host nid001476 reporting.
  Task      347 on host nid001476 reporting.
  Task      348 on host nid001476 reporting.
  Task      349 on host nid001476 reporting.
  Task      350 on host nid001476 reporting.
  Task      351 on host nid001476 reporting.
  Task      352 on host nid001476 reporting.
  Task      353 on host nid001476 reporting.
  Task      354 on host nid001476 reporting.
  Task      355 on host nid001476 reporting.
  Task      356 on host nid001476 reporting.
  Task      357 on host nid001476 reporting.
  Task      358 on host nid001476 reporting.
  Task      359 on host nid001476 reporting.
  Task      360 on host nid001476 reporting.
  Task      361 on host nid001476 reporting.
  Task      362 on host nid001476 reporting.
  Task      363 on host nid001476 reporting.
  Task      364 on host nid001476 reporting.
  Task      365 on host nid001476 reporting.
  Task      366 on host nid001476 reporting.
  Task      367 on host nid001476 reporting.
  Task      368 on host nid001476 reporting.
  Task      369 on host nid001476 reporting.
  Task      370 on host nid001476 reporting.
  Task      371 on host nid001476 reporting.
  Task      372 on host nid001476 reporting.
  Task      373 on host nid001476 reporting.
  Task      374 on host nid001476 reporting.
  Task      375 on host nid001476 reporting.
  Task      376 on host nid001476 reporting.
  Task      377 on host nid001476 reporting.
  Task      378 on host nid001476 reporting.
  Task      379 on host nid001476 reporting.
  Task      380 on host nid001476 reporting.
  Task      381 on host nid001476 reporting.
  Task      382 on host nid001476 reporting.
  Task      383 on host nid001476 reporting.

  Performing system and environment tests:
  | Environment variable OMP_NUM_THREADS correctly set to 1.
  | Checking for ScaLAPACK...
  | Testing pdtran()...
  | All pdtran() tests passed.

  Obtaining array dimensions for all initial allocations:
  
  -----------------------------------------------------------------------
  Parsing control.in (first pass over file, find array dimensions only).
  The contents of control.in will be repeated verbatim below
  unless switched off by setting 'verbatim_writeout .false.' .
  in the first line of control.in .
  -----------------------------------------------------------------------
  
  #===============================================================================
  # FHI-aims file: ./control.in
  # Created using the Atomic Simulation Environment (ASE)
  # Wed Jun 21 16:05:18 2023
  #===============================================================================
  xc                                 pbe
  occupation_type                    gaussian 0.2
  sc_accuracy_rho                    1e-06
  sc_accuracy_forces                 0.0001
  k_grid                             6 6 6
  relativistic                       atomic_zora scalar
  output_level                       MD_light
  compute_forces                     .true.
  compute_analytical_stress          .true.
  #===============================================================================
  
  ################################################################################
  #
  #  FHI-aims code project
  #  VB, Fritz-Haber Institut, 2009
  #
  #  Suggested "light" defaults for Os atom (to be pasted into control.in file)
  #  Be sure to double-check any results obtained with these settings for post-processing,
  #  e.g., with the "tight" defaults and larger basis sets.
  #
  ################################################################################
    species          Os
  #     global species definitions
      nucleus        76
      mass           190.23
  #
      l_hartree      4
  #
      cut_pot        3.5  1.5  1.0
      basis_dep_cutoff    1e-4
  #
      radial_base    72  5.0
      radial_multiplier  1
      angular_grids specified
        division   0.3468   50
        division   0.9290  110
        division   1.2652  194
        division   1.5835  302
  #      division   1.8546  434
  #      division   1.9966  590
  #      division   2.0267  770
  #      division   2.0887  974
  #      division   2.6529 1202
  #      outer_grid  974
        outer_grid  302
  ################################################################################
  #
  #  Definition of "minimal" basis
  #
  ################################################################################
  #     valence basis states
      valence      6  s   2.
      valence      5  p   6.
      valence      5  d   6.
      valence      4  f  14.
  #     ion occupancy
      ion_occ      6  s   1.
      ion_occ      5  p   6.
      ion_occ      5  d   5.
      ion_occ      4  f  14.
  ################################################################################
  #
  #  Suggested additional basis functions. For production calculations,
  #  uncomment them one after another (the most important basis functions are
  #  listed first).
  #
  #  Constructed for dimers: 1.80, 2.04, 2.50, 3.25, 4.50 AA
  #
  ################################################################################
  #
  #  "First tier" - improvements: -453.39 meV to -28.79 meV
       hydro 4 f 8.2
       ionic 6 p auto
       ionic 5 d auto
  #     hydro 5 g 12
       ionic 6 s auto
  #  "Second tier" - improvements: -21.76 meV to - meV
  #     hydro 6 h 16.4
  #     hydro 3 p 3.6
  #     hydro 4 f 9.4
  #     hydro 5 d 7.6
  #     hydro 5 g 20.4
  #     hydro 4 s 4.3
  #  "Third tier" - max. impr. -1.69 meV, min. impr. -0.23 meV
  #     hydro 5 f 10.4
  #     hydro 6 h 21.2
  #     hydro 5 g 13.2
  #     hydro 5 g 38.8
  #     hydro 5 d 9.8
  #     hydro 2 p 1.9
  #     hydro 1 s 0.75
  #  "Fourth tier" - max. impr. -0.38 meV, min. impr. -0.17 meV
  #     hydro 6 h 22
  #     hydro 5 f 22.4
  #     hydro 5 p 10.4
  #     hydro 6 d 16
  #     hydro 7 s 11.2
  
  -----------------------------------------------------------------------
  Completed first pass over input file control.in .
  -----------------------------------------------------------------------
  
  
  -----------------------------------------------------------------------
  Parsing geometry.in (first pass over file, find array dimensions only).
  The contents of geometry.in will be repeated verbatim below
  unless switched off by setting 'verbatim_writeout .false.' .
  in the first line of geometry.in .
  -----------------------------------------------------------------------
  
  #===============================================================================
  # Created using the Atomic Simulation Environment (ASE)
  
  # Wed Jun 21 17:24:08 2023
  
  
  # Additional information:
  #  created from force constants
  #  T = 0.0 K
  #  quantum:             True
  #  deterministic:       False
  #  plus_minus:          False
  #  gauge_eigenvectors:  False
  #  Random seed:         1709739447
  #  Sample number:       2
  #  Harmonic E_pot:        0.738eV (118.95K)
  #=======================================================
  lattice_vector 8.2611990177960006 0.0000000000000000 0.0000000000000000
  lattice_vector 0.0000000000000000 9.5392109535080003 0.0000000000000000
  lattice_vector 0.0000000000000000 0.0000000000000000 8.6884866849320002
  atom 1.3895819773433769 0.7734659351597521 3.2418527919305613 Os
      velocity -0.0000000000000000 -0.0000000000000000 0.0000000000000000
  atom 4.1514503635687836 0.7749083511716409 3.2441189981843497 Os
      velocity -0.0000000000000000 0.0000000000000000 0.0000000000000000
  atom 6.8967952218574107 0.8040009760922641 3.2434882272637662 Os
      velocity 0.0000000000000000 -0.0000000000000000 0.0000000000000000
  atom -0.0088741755753498 3.1451349109393081 3.2712167214157217 Os
      velocity 0.0000000000000000 -0.0000000000000000 0.0000000000000000
  atom 2.7141052497231781 3.1423198530011538 3.2299853577867390 Os
      velocity 0.0000000000000000 0.0000000000000000 0.0000000000000000
  atom 5.4998405117835070 3.1845098582320643 3.2698594415981010 Os
      velocity 0.0000000000000000 -0.0000000000000000 0.0000000000000000
  atom 6.9336476156170868 5.5530107309190120 3.2912678897691197 Os
      velocity -0.0000000000000000 0.0000000000000000 -0.0000000000000000
  atom 1.3785662999883843 5.5306108339823181 3.2833703250692454 Os
      velocity -0.0000000000000000 -0.0000000000000000 -0.0000000000000000
  atom 4.1315614091238544 5.5748639525857238 3.2131048387567649 Os
      velocity 0.0000000000000000 0.0000000000000000 -0.0000000000000000
  atom 5.5097826872992206 7.9495638537312612 3.2678200406487021 Os
      velocity 0.0000000000000000 0.0000000000000000 0.0000000000000000
  atom 0.0264630218966804 7.9278334455027668 3.2252241206626477 Os
      velocity 0.0000000000000000 0.0000000000000000 -0.0000000000000000
  atom 2.7595901556756126 7.9873410296070535 3.2496772294973764 Os
      velocity -0.0000000000000000 -0.0000000000000000 0.0000000000000000
  atom 1.3733262772527146 0.7702875703943217 7.6234006351180188 Os
      velocity 0.0000000000000000 -0.0000000000000000 0.0000000000000000
  atom 4.1381678957444414 0.8312826046357088 7.6107893100969273 Os
      velocity -0.0000000000000000 -0.0000000000000000 0.0000000000000000
  atom 6.8771781256987641 0.8378540584459790 7.6249056787961464 Os
      velocity -0.0000000000000000 0.0000000000000000 -0.0000000000000000
  atom 0.0067394191291104 3.2168319462818653 7.6090704705303400 Os
      velocity 0.0000000000000000 0.0000000000000000 0.0000000000000000
  atom 2.7748065188021385 3.1863022971987029 7.5648794029383000 Os
      velocity -0.0000000000000000 -0.0000000000000000 0.0000000000000000
  atom 5.4879957609600849 3.2043941401500975 7.5951337772132925 Os
      velocity 0.0000000000000000 -0.0000000000000000 0.0000000000000000
  atom 6.8577684395708154 5.5815578395002063 7.6381336330664578 Os
      velocity 0.0000000000000000 -0.0000000000000000 0.0000000000000000
  atom 1.3722643873873390 5.5895926107608487 7.6338490242606980 Os
      velocity 0.0000000000000000 -0.0000000000000000 0.0000000000000000
  atom 4.1343469413288449 5.5774680673444506 7.6062380249538881 Os
      velocity 0.0000000000000000 -0.0000000000000000 0.0000000000000000
  atom 5.4970333075553057 7.9386425421458560 7.6149529824872362 Os
      velocity 0.0000000000000000 -0.0000000000000000 0.0000000000000000
  atom -0.0059806521607363 7.9552299879797141 7.5885180019107148 Os
      velocity 0.0000000000000000 0.0000000000000000 0.0000000000000000
  atom 2.7613180391394221 7.9429652448847392 7.5951289636800521 Os
      velocity 0.0000000000000000 0.0000000000000000 -0.0000000000000000
  atom 8.2962558006934017 1.5968860828382931 1.0578604181706421 Os
      velocity 0.0000000000000000 0.0000000000000000 -0.0000000000000000
  atom 2.7375852472964288 1.6041378276816733 1.0671143999653503 Os
      velocity 0.0000000000000000 0.0000000000000000 0.0000000000000000
  atom 5.4921304116351743 1.5394369351498127 1.0864873249169467 Os
      velocity -0.0000000000000000 -0.0000000000000000 -0.0000000000000000
  atom 6.9010554132782724 3.9557475350616396 1.0997822574458533 Os
      velocity -0.0000000000000000 0.0000000000000000 0.0000000000000000
  atom 1.3962475958423632 3.9999753437484387 1.0842631352042915 Os
      velocity 0.0000000000000000 0.0000000000000000 -0.0000000000000000
  atom 4.1404395194263230 3.9014806560868762 1.0810731254856019 Os
      velocity -0.0000000000000000 -0.0000000000000000 0.0000000000000000
  atom 5.4816612000172276 6.3498790320109810 1.1361099296984416 Os
      velocity 0.0000000000000000 0.0000000000000000 -0.0000000000000000
  atom 8.2394119393776535 6.3944298637424417 1.0767064501152037 Os
      velocity 0.0000000000000000 -0.0000000000000000 -0.0000000000000000
  atom 2.7224614305470149 6.3581402923114121 1.0929179462751548 Os
      velocity 0.0000000000000000 -0.0000000000000000 -0.0000000000000000
  atom 4.0788455173491975 8.7527435562549414 1.0686499275281740 Os
      velocity -0.0000000000000000 0.0000000000000000 -0.0000000000000000
  atom 6.8550429746538164 8.7287848418052718 1.0689009741359938 Os
      velocity -0.0000000000000000 -0.0000000000000000 -0.0000000000000000
  atom 1.3207715079460471 8.7405346868632083 1.1060369286812251 Os
      velocity 0.0000000000000000 0.0000000000000000 0.0000000000000000
  atom 8.2490016303448943 1.5910255600883725 5.4068314078130513 Os
      velocity -0.0000000000000000 -0.0000000000000000 -0.0000000000000000
  atom 2.7134478736445815 1.5549965994124464 5.4090561432931068 Os
      velocity -0.0000000000000000 -0.0000000000000000 -0.0000000000000000
  atom 5.5069437225118474 1.6116198680456992 5.4197727111582692 Os
      velocity 0.0000000000000000 0.0000000000000000 0.0000000000000000
  atom 6.9071713384495004 3.9728181826281523 5.4306982686381238 Os
      velocity 0.0000000000000000 0.0000000000000000 0.0000000000000000
  atom 1.4046384051438066 4.0335177379130718 5.4210507405023831 Os
      velocity -0.0000000000000000 -0.0000000000000000 -0.0000000000000000
  atom 4.1452276741625322 3.9712081454935655 5.4507227261219624 Os
      velocity -0.0000000000000000 0.0000000000000000 0.0000000000000000
  atom 5.4891862105505478 6.3342751670642059 5.4153392557731985 Os
      velocity -0.0000000000000000 0.0000000000000000 0.0000000000000000
  atom 8.3177046022568746 6.3561772753846277 5.4025882980454742 Os
      velocity 0.0000000000000000 -0.0000000000000000 -0.0000000000000000
  atom 2.7902377688416311 6.3913529176342392 5.4517987366507370 Os
      velocity -0.0000000000000000 -0.0000000000000000 0.0000000000000000
  atom 4.1480642426609826 8.7446438145996943 5.4220643336115257 Os
      velocity -0.0000000000000000 0.0000000000000000 0.0000000000000000
  atom 6.9075858757041537 8.7239409493029072 5.4546428851378357 Os
      velocity 0.0000000000000000 0.0000000000000000 -0.0000000000000000
  atom 1.3701574294189425 8.7533359055804887 5.4771838114031581 Os
      velocity -0.0000000000000000 -0.0000000000000000 -0.0000000000000000
  
  -----------------------------------------------------------------------
  Completed first pass over input file geometry.in .
  -----------------------------------------------------------------------
  

  Basic array size parameters:
  | Number of species                 :        1
  | Number of atoms                   :       48
  | Number of lattice vectors         :        3
  | Max. basis fn. angular momentum   :        3
  | Max. atomic/ionic basis occupied n:        6
  | Max. number of basis fn. types    :        3
  | Max. radial fns per species/type  :       14
  | Max. logarithmic grid size        :     1485
  | Max. radial integration grid size :       72
  | Max. angular integration grid size:      302
  | Max. angular grid division number :        8
  | Radial grid for Hartree potential :     1485
  | Number of spin channels           :        1

------------------------------------------------------------
          Reading file control.in.
------------------------------------------------------------
  XC: Using PBE gradient-corrected functionals.
  Occupation type: Gaussian broadening, width =   0.200000E+00 eV.
  Convergence accuracy of self-consistent charge density:  0.1000E-05
  Convergence accuracy of forces:  0.1000E-03
  Found k-point grid:         6         6         6
  Scalar relativistic treatment of kinetic energy: on-site free-atom approximation to ZORA.
  Requested output level: MD_light
  Forces will be computed.

  Reading configuration options for species Os                  .
  | Found nuclear charge :  76.0000
  | Found atomic mass :    190.22999999999999      amu
  | Found l_max for Hartree potential  :   4
  | Found cutoff potl. onset [A], width [A], scale factor :    3.50000    1.50000    1.00000
  | Threshold for basis-dependent cutoff potential is   0.100000E-03
  | Found data for basic radial integration grid :    72 points, outermost radius =    5.000 A
  | Found multiplier for basic radial grid :   1
  | Found angular grid specification: user-specified.
  | Specified grid contains     5 separate shells.
  | Check grid settings after all constraints further below.
  | Found free-atom valence shell :  6 s   2.000
  | Found free-atom valence shell :  5 p   6.000
  | Found free-atom valence shell :  5 d   6.000
  | Found free-atom valence shell :  4 f  14.000
  | Found free-ion valence shell :  6 s   1.000
  | Found free-ion valence shell :  5 p   6.000
  | Found free-ion valence shell :  5 d   5.000
  | Found free-ion valence shell :  4 f  14.000
  | Found hydrogenic basis function :  4 f   8.200
  | Found ionic basis function :  6 p , default cutoff radius.
  | Found ionic basis function :  5 d , default cutoff radius.
  | Found ionic basis function :  6 s , default cutoff radius.
  Species Os                  : Missing cutoff potential type.
  Defaulting to exp(1/x)/(1-x)^2 type cutoff potential.
  Species Os: No 'logarithmic' tag. Using default grid for free atom:
  | Default logarithmic grid data [bohr] : 0.1000E-03 0.1000E+03 0.1012E+01
  | Will include ionic basis functions of  2.0-fold positive Os                   ion.
  Species Os: On-site basis accuracy parameter (for Gram-Schmidt orthonormalisation) not specified.
  Using default value basis_acc =  0.1000000E-03.
  Species Os                  : Using default innermost maximum threshold i_radial=  2 for radial functions.
  Species Os                  : Default cutoff onset for free atom density etc. : 0.35000000E+01 AA.
  Species Os                  : Basic radial grid will be enhanced according to radial_multiplier =   1, to contain    72 grid points.

  Finished reading input file 'control.in'.

------------------------------------------------------------


------------------------------------------------------------
          Reading geometry description geometry.in.
------------------------------------------------------------
  * WARNING: Ignoring velocity specification in geometry.in without MD request.
  * WARNING: Ignoring velocity specification in geometry.in without MD request.
  * WARNING: Ignoring velocity specification in geometry.in without MD request.
  * WARNING: Ignoring velocity specification in geometry.in without MD request.
  * WARNING: Ignoring velocity specification in geometry.in without MD request.
  * WARNING: Ignoring velocity specification in geometry.in without MD request.
  * WARNING: Ignoring velocity specification in geometry.in without MD request.
  * WARNING: Ignoring velocity specification in geometry.in without MD request.
  * WARNING: Ignoring velocity specification in geometry.in without MD request.
  * WARNING: Ignoring velocity specification in geometry.in without MD request.
  * WARNING: Ignoring velocity specification in geometry.in without MD request.
  * WARNING: Ignoring velocity specification in geometry.in without MD request.
  * WARNING: Ignoring velocity specification in geometry.in without MD request.
  * WARNING: Ignoring velocity specification in geometry.in without MD request.
  * WARNING: Ignoring velocity specification in geometry.in without MD request.
  * WARNING: Ignoring velocity specification in geometry.in without MD request.
  * WARNING: Ignoring velocity specification in geometry.in without MD request.
  * WARNING: Ignoring velocity specification in geometry.in without MD request.
  * WARNING: Ignoring velocity specification in geometry.in without MD request.
  * WARNING: Ignoring velocity specification in geometry.in without MD request.
  * WARNING: Ignoring velocity specification in geometry.in without MD request.
  * WARNING: Ignoring velocity specification in geometry.in without MD request.
  * WARNING: Ignoring velocity specification in geometry.in without MD request.
  * WARNING: Ignoring velocity specification in geometry.in without MD request.
  * WARNING: Ignoring velocity specification in geometry.in without MD request.
  * WARNING: Ignoring velocity specification in geometry.in without MD request.
  * WARNING: Ignoring velocity specification in geometry.in without MD request.
  * WARNING: Ignoring velocity specification in geometry.in without MD request.
  * WARNING: Ignoring velocity specification in geometry.in without MD request.
  * WARNING: Ignoring velocity specification in geometry.in without MD request.
  * WARNING: Ignoring velocity specification in geometry.in without MD request.
  * WARNING: Ignoring velocity specification in geometry.in without MD request.
  * WARNING: Ignoring velocity specification in geometry.in without MD request.
  * WARNING: Ignoring velocity specification in geometry.in without MD request.
  * WARNING: Ignoring velocity specification in geometry.in without MD request.
  * WARNING: Ignoring velocity specification in geometry.in without MD request.
  * WARNING: Ignoring velocity specification in geometry.in without MD request.
  * WARNING: Ignoring velocity specification in geometry.in without MD request.
  * WARNING: Ignoring velocity specification in geometry.in without MD request.
  * WARNING: Ignoring velocity specification in geometry.in without MD request.
  * WARNING: Ignoring velocity specification in geometry.in without MD request.
  * WARNING: Ignoring velocity specification in geometry.in without MD request.
  * WARNING: Ignoring velocity specification in geometry.in without MD request.
  * WARNING: Ignoring velocity specification in geometry.in without MD request.
  * WARNING: Ignoring velocity specification in geometry.in without MD request.
  * WARNING: Ignoring velocity specification in geometry.in without MD request.
  * WARNING: Ignoring velocity specification in geometry.in without MD request.
  * WARNING: Ignoring velocity specification in geometry.in without MD request.
  | The smallest distance between any two atoms is         2.59563589 AA.
  | The first atom of this pair is atom number                      9 .
  | The second atom of this pair is atom number                    31 .
  | Wigner-Seitz cell of the first atom image           0     0     0 .
  | (The Wigner-Seitz cell of the second atom is 0 0 0  by definition.)

  Symmetry information by spglib:
  | Precision set to  0.1E-04
  | Number of Operations  : 1
  | Space group           : 1
  | International         : P1 i
  | Schoenflies           : C1^1
  Input structure read successfully.
  The structure contains       48 atoms,  and a total of       3648.000 electrons.

  Input geometry:
  | Unit cell:
  |        8.26119902        0.00000000        0.00000000
  |        0.00000000        9.53921095        0.00000000
  |        0.00000000        0.00000000        8.68848668
  | Atomic structure:
  |       Atom                x [A]            y [A]            z [A]
  |    1: Species Os            1.38958198        0.77346594        3.24185279
  |    2: Species Os            4.15145036        0.77490835        3.24411900
  |    3: Species Os            6.89679522        0.80400098        3.24348823
  |    4: Species Os           -0.00887418        3.14513491        3.27121672
  |    5: Species Os            2.71410525        3.14231985        3.22998536
  |    6: Species Os            5.49984051        3.18450986        3.26985944
  |    7: Species Os            6.93364762        5.55301073        3.29126789
  |    8: Species Os            1.37856630        5.53061083        3.28337033
  |    9: Species Os            4.13156141        5.57486395        3.21310484
  |   10: Species Os            5.50978269        7.94956385        3.26782004
  |   11: Species Os            0.02646302        7.92783345        3.22522412
  |   12: Species Os            2.75959016        7.98734103        3.24967723
  |   13: Species Os            1.37332628        0.77028757        7.62340064
  |   14: Species Os            4.13816790        0.83128260        7.61078931
  |   15: Species Os            6.87717813        0.83785406        7.62490568
  |   16: Species Os            0.00673942        3.21683195        7.60907047
  |   17: Species Os            2.77480652        3.18630230        7.56487940
  |   18: Species Os            5.48799576        3.20439414        7.59513378
  |   19: Species Os            6.85776844        5.58155784        7.63813363
  |   20: Species Os            1.37226439        5.58959261        7.63384902
  |   21: Species Os            4.13434694        5.57746807        7.60623802
  |   22: Species Os            5.49703331        7.93864254        7.61495298
  |   23: Species Os           -0.00598065        7.95522999        7.58851800
  |   24: Species Os            2.76131804        7.94296524        7.59512896
  |   25: Species Os            8.29625580        1.59688608        1.05786042
  |   26: Species Os            2.73758525        1.60413783        1.06711440
  |   27: Species Os            5.49213041        1.53943694        1.08648732
  |   28: Species Os            6.90105541        3.95574754        1.09978226
  |   29: Species Os            1.39624760        3.99997534        1.08426314
  |   30: Species Os            4.14043952        3.90148066        1.08107313
  |   31: Species Os            5.48166120        6.34987903        1.13610993
  |   32: Species Os            8.23941194        6.39442986        1.07670645
  |   33: Species Os            2.72246143        6.35814029        1.09291795
  |   34: Species Os            4.07884552        8.75274356        1.06864993
  |   35: Species Os            6.85504297        8.72878484        1.06890097
  |   36: Species Os            1.32077151        8.74053469        1.10603693
  |   37: Species Os            8.24900163        1.59102556        5.40683141
  |   38: Species Os            2.71344787        1.55499660        5.40905614
  |   39: Species Os            5.50694372        1.61161987        5.41977271
  |   40: Species Os            6.90717134        3.97281818        5.43069827
  |   41: Species Os            1.40463841        4.03351774        5.42105074
  |   42: Species Os            4.14522767        3.97120815        5.45072273
  |   43: Species Os            5.48918621        6.33427517        5.41533926
  |   44: Species Os            8.31770460        6.35617728        5.40258830
  |   45: Species Os            2.79023777        6.39135292        5.45179874
  |   46: Species Os            4.14806424        8.74464381        5.42206433
  |   47: Species Os            6.90758588        8.72394095        5.45464289
  |   48: Species Os            1.37015743        8.75333591        5.47718381

  Lattice parameters for 3D lattice (in Angstroms) :     8.261199    9.539211    8.688487
  Angle(s) between unit vectors (in degrees)       :    90.000000   90.000000   90.000000


  Quantities derived from the lattice vectors (in Angstrom^-1):
  | Reciprocal lattice vector 1:  0.760566  0.000000  0.000000
  | Reciprocal lattice vector 2:  0.000000  0.658669  0.000000
  | Reciprocal lattice vector 3:  0.000000  0.000000  0.723162
  | Unit cell volume                               :   0.684699E+03  Angstrom^3


  Finished reading input file 'geometry.in'.



  Consistency checks for stacksize environment parameter are next.

  | Maximum stacksize for task 0: unlimited
  | Maximum stacksize for task 1: unlimited
  | Maximum stacksize for task 2: unlimited
  | Maximum stacksize for task 3: unlimited
  | Maximum stacksize for task 4: unlimited
  | Maximum stacksize for task 5: unlimited
  | Maximum stacksize for task 6: unlimited
  | Maximum stacksize for task 7: unlimited
  | Maximum stacksize for task 8: unlimited
  | Maximum stacksize for task 9: unlimited
  | Maximum stacksize for task 10: unlimited
  | Maximum stacksize for task 11: unlimited
  | Maximum stacksize for task 12: unlimited
  | Maximum stacksize for task 13: unlimited
  | Maximum stacksize for task 14: unlimited
  | Maximum stacksize for task 15: unlimited
  | Maximum stacksize for task 16: unlimited
  | Maximum stacksize for task 17: unlimited
  | Maximum stacksize for task 18: unlimited
  | Maximum stacksize for task 19: unlimited
  | Maximum stacksize for task 20: unlimited
  | Maximum stacksize for task 21: unlimited
  | Maximum stacksize for task 22: unlimited
  | Maximum stacksize for task 23: unlimited
  | Maximum stacksize for task 24: unlimited
  | Maximum stacksize for task 25: unlimited
  | Maximum stacksize for task 26: unlimited
  | Maximum stacksize for task 27: unlimited
  | Maximum stacksize for task 28: unlimited
  | Maximum stacksize for task 29: unlimited
  | Maximum stacksize for task 30: unlimited
  | Maximum stacksize for task 31: unlimited
  | Maximum stacksize for task 32: unlimited
  | Maximum stacksize for task 33: unlimited
  | Maximum stacksize for task 34: unlimited
  | Maximum stacksize for task 35: unlimited
  | Maximum stacksize for task 36: unlimited
  | Maximum stacksize for task 37: unlimited
  | Maximum stacksize for task 38: unlimited
  | Maximum stacksize for task 39: unlimited
  | Maximum stacksize for task 40: unlimited
  | Maximum stacksize for task 41: unlimited
  | Maximum stacksize for task 42: unlimited
  | Maximum stacksize for task 43: unlimited
  | Maximum stacksize for task 44: unlimited
  | Maximum stacksize for task 45: unlimited
  | Maximum stacksize for task 46: unlimited
  | Maximum stacksize for task 47: unlimited
  | Maximum stacksize for task 48: unlimited
  | Maximum stacksize for task 49: unlimited
  | Maximum stacksize for task 50: unlimited
  | Maximum stacksize for task 51: unlimited
  | Maximum stacksize for task 52: unlimited
  | Maximum stacksize for task 53: unlimited
  | Maximum stacksize for task 54: unlimited
  | Maximum stacksize for task 55: unlimited
  | Maximum stacksize for task 56: unlimited
  | Maximum stacksize for task 57: unlimited
  | Maximum stacksize for task 58: unlimited
  | Maximum stacksize for task 59: unlimited
  | Maximum stacksize for task 60: unlimited
  | Maximum stacksize for task 61: unlimited
  | Maximum stacksize for task 62: unlimited
  | Maximum stacksize for task 63: unlimited
  | Maximum stacksize for task 64: unlimited
  | Maximum stacksize for task 65: unlimited
  | Maximum stacksize for task 66: unlimited
  | Maximum stacksize for task 67: unlimited
  | Maximum stacksize for task 68: unlimited
  | Maximum stacksize for task 69: unlimited
  | Maximum stacksize for task 70: unlimited
  | Maximum stacksize for task 71: unlimited
  | Maximum stacksize for task 72: unlimited
  | Maximum stacksize for task 73: unlimited
  | Maximum stacksize for task 74: unlimited
  | Maximum stacksize for task 75: unlimited
  | Maximum stacksize for task 76: unlimited
  | Maximum stacksize for task 77: unlimited
  | Maximum stacksize for task 78: unlimited
  | Maximum stacksize for task 79: unlimited
  | Maximum stacksize for task 80: unlimited
  | Maximum stacksize for task 81: unlimited
  | Maximum stacksize for task 82: unlimited
  | Maximum stacksize for task 83: unlimited
  | Maximum stacksize for task 84: unlimited
  | Maximum stacksize for task 85: unlimited
  | Maximum stacksize for task 86: unlimited
  | Maximum stacksize for task 87: unlimited
  | Maximum stacksize for task 88: unlimited
  | Maximum stacksize for task 89: unlimited
  | Maximum stacksize for task 90: unlimited
  | Maximum stacksize for task 91: unlimited
  | Maximum stacksize for task 92: unlimited
  | Maximum stacksize for task 93: unlimited
  | Maximum stacksize for task 94: unlimited
  | Maximum stacksize for task 95: unlimited
  | Maximum stacksize for task 96: unlimited
  | Maximum stacksize for task 97: unlimited
  | Maximum stacksize for task 98: unlimited
  | Maximum stacksize for task 99: unlimited
  | Maximum stacksize for task 100: unlimited
  | Maximum stacksize for task 101: unlimited
  | Maximum stacksize for task 102: unlimited
  | Maximum stacksize for task 103: unlimited
  | Maximum stacksize for task 104: unlimited
  | Maximum stacksize for task 105: unlimited
  | Maximum stacksize for task 106: unlimited
  | Maximum stacksize for task 107: unlimited
  | Maximum stacksize for task 108: unlimited
  | Maximum stacksize for task 109: unlimited
  | Maximum stacksize for task 110: unlimited
  | Maximum stacksize for task 111: unlimited
  | Maximum stacksize for task 112: unlimited
  | Maximum stacksize for task 113: unlimited
  | Maximum stacksize for task 114: unlimited
  | Maximum stacksize for task 115: unlimited
  | Maximum stacksize for task 116: unlimited
  | Maximum stacksize for task 117: unlimited
  | Maximum stacksize for task 118: unlimited
  | Maximum stacksize for task 119: unlimited
  | Maximum stacksize for task 120: unlimited
  | Maximum stacksize for task 121: unlimited
  | Maximum stacksize for task 122: unlimited
  | Maximum stacksize for task 123: unlimited
  | Maximum stacksize for task 124: unlimited
  | Maximum stacksize for task 125: unlimited
  | Maximum stacksize for task 126: unlimited
  | Maximum stacksize for task 127: unlimited
  | Maximum stacksize for task 128: unlimited
  | Maximum stacksize for task 129: unlimited
  | Maximum stacksize for task 130: unlimited
  | Maximum stacksize for task 131: unlimited
  | Maximum stacksize for task 132: unlimited
  | Maximum stacksize for task 133: unlimited
  | Maximum stacksize for task 134: unlimited
  | Maximum stacksize for task 135: unlimited
  | Maximum stacksize for task 136: unlimited
  | Maximum stacksize for task 137: unlimited
  | Maximum stacksize for task 138: unlimited
  | Maximum stacksize for task 139: unlimited
  | Maximum stacksize for task 140: unlimited
  | Maximum stacksize for task 141: unlimited
  | Maximum stacksize for task 142: unlimited
  | Maximum stacksize for task 143: unlimited
  | Maximum stacksize for task 144: unlimited
  | Maximum stacksize for task 145: unlimited
  | Maximum stacksize for task 146: unlimited
  | Maximum stacksize for task 147: unlimited
  | Maximum stacksize for task 148: unlimited
  | Maximum stacksize for task 149: unlimited
  | Maximum stacksize for task 150: unlimited
  | Maximum stacksize for task 151: unlimited
  | Maximum stacksize for task 152: unlimited
  | Maximum stacksize for task 153: unlimited
  | Maximum stacksize for task 154: unlimited
  | Maximum stacksize for task 155: unlimited
  | Maximum stacksize for task 156: unlimited
  | Maximum stacksize for task 157: unlimited
  | Maximum stacksize for task 158: unlimited
  | Maximum stacksize for task 159: unlimited
  | Maximum stacksize for task 160: unlimited
  | Maximum stacksize for task 161: unlimited
  | Maximum stacksize for task 162: unlimited
  | Maximum stacksize for task 163: unlimited
  | Maximum stacksize for task 164: unlimited
  | Maximum stacksize for task 165: unlimited
  | Maximum stacksize for task 166: unlimited
  | Maximum stacksize for task 167: unlimited
  | Maximum stacksize for task 168: unlimited
  | Maximum stacksize for task 169: unlimited
  | Maximum stacksize for task 170: unlimited
  | Maximum stacksize for task 171: unlimited
  | Maximum stacksize for task 172: unlimited
  | Maximum stacksize for task 173: unlimited
  | Maximum stacksize for task 174: unlimited
  | Maximum stacksize for task 175: unlimited
  | Maximum stacksize for task 176: unlimited
  | Maximum stacksize for task 177: unlimited
  | Maximum stacksize for task 178: unlimited
  | Maximum stacksize for task 179: unlimited
  | Maximum stacksize for task 180: unlimited
  | Maximum stacksize for task 181: unlimited
  | Maximum stacksize for task 182: unlimited
  | Maximum stacksize for task 183: unlimited
  | Maximum stacksize for task 184: unlimited
  | Maximum stacksize for task 185: unlimited
  | Maximum stacksize for task 186: unlimited
  | Maximum stacksize for task 187: unlimited
  | Maximum stacksize for task 188: unlimited
  | Maximum stacksize for task 189: unlimited
  | Maximum stacksize for task 190: unlimited
  | Maximum stacksize for task 191: unlimited
  | Maximum stacksize for task 192: unlimited
  | Maximum stacksize for task 193: unlimited
  | Maximum stacksize for task 194: unlimited
  | Maximum stacksize for task 195: unlimited
  | Maximum stacksize for task 196: unlimited
  | Maximum stacksize for task 197: unlimited
  | Maximum stacksize for task 198: unlimited
  | Maximum stacksize for task 199: unlimited
  | Maximum stacksize for task 200: unlimited
  | Maximum stacksize for task 201: unlimited
  | Maximum stacksize for task 202: unlimited
  | Maximum stacksize for task 203: unlimited
  | Maximum stacksize for task 204: unlimited
  | Maximum stacksize for task 205: unlimited
  | Maximum stacksize for task 206: unlimited
  | Maximum stacksize for task 207: unlimited
  | Maximum stacksize for task 208: unlimited
  | Maximum stacksize for task 209: unlimited
  | Maximum stacksize for task 210: unlimited
  | Maximum stacksize for task 211: unlimited
  | Maximum stacksize for task 212: unlimited
  | Maximum stacksize for task 213: unlimited
  | Maximum stacksize for task 214: unlimited
  | Maximum stacksize for task 215: unlimited
  | Maximum stacksize for task 216: unlimited
  | Maximum stacksize for task 217: unlimited
  | Maximum stacksize for task 218: unlimited
  | Maximum stacksize for task 219: unlimited
  | Maximum stacksize for task 220: unlimited
  | Maximum stacksize for task 221: unlimited
  | Maximum stacksize for task 222: unlimited
  | Maximum stacksize for task 223: unlimited
  | Maximum stacksize for task 224: unlimited
  | Maximum stacksize for task 225: unlimited
  | Maximum stacksize for task 226: unlimited
  | Maximum stacksize for task 227: unlimited
  | Maximum stacksize for task 228: unlimited
  | Maximum stacksize for task 229: unlimited
  | Maximum stacksize for task 230: unlimited
  | Maximum stacksize for task 231: unlimited
  | Maximum stacksize for task 232: unlimited
  | Maximum stacksize for task 233: unlimited
  | Maximum stacksize for task 234: unlimited
  | Maximum stacksize for task 235: unlimited
  | Maximum stacksize for task 236: unlimited
  | Maximum stacksize for task 237: unlimited
  | Maximum stacksize for task 238: unlimited
  | Maximum stacksize for task 239: unlimited
  | Maximum stacksize for task 240: unlimited
  | Maximum stacksize for task 241: unlimited
  | Maximum stacksize for task 242: unlimited
  | Maximum stacksize for task 243: unlimited
  | Maximum stacksize for task 244: unlimited
  | Maximum stacksize for task 245: unlimited
  | Maximum stacksize for task 246: unlimited
  | Maximum stacksize for task 247: unlimited
  | Maximum stacksize for task 248: unlimited
  | Maximum stacksize for task 249: unlimited
  | Maximum stacksize for task 250: unlimited
  | Maximum stacksize for task 251: unlimited
  | Maximum stacksize for task 252: unlimited
  | Maximum stacksize for task 253: unlimited
  | Maximum stacksize for task 254: unlimited
  | Maximum stacksize for task 255: unlimited
  | Maximum stacksize for task 256: unlimited
  | Maximum stacksize for task 257: unlimited
  | Maximum stacksize for task 258: unlimited
  | Maximum stacksize for task 259: unlimited
  | Maximum stacksize for task 260: unlimited
  | Maximum stacksize for task 261: unlimited
  | Maximum stacksize for task 262: unlimited
  | Maximum stacksize for task 263: unlimited
  | Maximum stacksize for task 264: unlimited
  | Maximum stacksize for task 265: unlimited
  | Maximum stacksize for task 266: unlimited
  | Maximum stacksize for task 267: unlimited
  | Maximum stacksize for task 268: unlimited
  | Maximum stacksize for task 269: unlimited
  | Maximum stacksize for task 270: unlimited
  | Maximum stacksize for task 271: unlimited
  | Maximum stacksize for task 272: unlimited
  | Maximum stacksize for task 273: unlimited
  | Maximum stacksize for task 274: unlimited
  | Maximum stacksize for task 275: unlimited
  | Maximum stacksize for task 276: unlimited
  | Maximum stacksize for task 277: unlimited
  | Maximum stacksize for task 278: unlimited
  | Maximum stacksize for task 279: unlimited
  | Maximum stacksize for task 280: unlimited
  | Maximum stacksize for task 281: unlimited
  | Maximum stacksize for task 282: unlimited
  | Maximum stacksize for task 283: unlimited
  | Maximum stacksize for task 284: unlimited
  | Maximum stacksize for task 285: unlimited
  | Maximum stacksize for task 286: unlimited
  | Maximum stacksize for task 287: unlimited
  | Maximum stacksize for task 288: unlimited
  | Maximum stacksize for task 289: unlimited
  | Maximum stacksize for task 290: unlimited
  | Maximum stacksize for task 291: unlimited
  | Maximum stacksize for task 292: unlimited
  | Maximum stacksize for task 293: unlimited
  | Maximum stacksize for task 294: unlimited
  | Maximum stacksize for task 295: unlimited
  | Maximum stacksize for task 296: unlimited
  | Maximum stacksize for task 297: unlimited
  | Maximum stacksize for task 298: unlimited
  | Maximum stacksize for task 299: unlimited
  | Maximum stacksize for task 300: unlimited
  | Maximum stacksize for task 301: unlimited
  | Maximum stacksize for task 302: unlimited
  | Maximum stacksize for task 303: unlimited
  | Maximum stacksize for task 304: unlimited
  | Maximum stacksize for task 305: unlimited
  | Maximum stacksize for task 306: unlimited
  | Maximum stacksize for task 307: unlimited
  | Maximum stacksize for task 308: unlimited
  | Maximum stacksize for task 309: unlimited
  | Maximum stacksize for task 310: unlimited
  | Maximum stacksize for task 311: unlimited
  | Maximum stacksize for task 312: unlimited
  | Maximum stacksize for task 313: unlimited
  | Maximum stacksize for task 314: unlimited
  | Maximum stacksize for task 315: unlimited
  | Maximum stacksize for task 316: unlimited
  | Maximum stacksize for task 317: unlimited
  | Maximum stacksize for task 318: unlimited
  | Maximum stacksize for task 319: unlimited
  | Maximum stacksize for task 320: unlimited
  | Maximum stacksize for task 321: unlimited
  | Maximum stacksize for task 322: unlimited
  | Maximum stacksize for task 323: unlimited
  | Maximum stacksize for task 324: unlimited
  | Maximum stacksize for task 325: unlimited
  | Maximum stacksize for task 326: unlimited
  | Maximum stacksize for task 327: unlimited
  | Maximum stacksize for task 328: unlimited
  | Maximum stacksize for task 329: unlimited
  | Maximum stacksize for task 330: unlimited
  | Maximum stacksize for task 331: unlimited
  | Maximum stacksize for task 332: unlimited
  | Maximum stacksize for task 333: unlimited
  | Maximum stacksize for task 334: unlimited
  | Maximum stacksize for task 335: unlimited
  | Maximum stacksize for task 336: unlimited
  | Maximum stacksize for task 337: unlimited
  | Maximum stacksize for task 338: unlimited
  | Maximum stacksize for task 339: unlimited
  | Maximum stacksize for task 340: unlimited
  | Maximum stacksize for task 341: unlimited
  | Maximum stacksize for task 342: unlimited
  | Maximum stacksize for task 343: unlimited
  | Maximum stacksize for task 344: unlimited
  | Maximum stacksize for task 345: unlimited
  | Maximum stacksize for task 346: unlimited
  | Maximum stacksize for task 347: unlimited
  | Maximum stacksize for task 348: unlimited
  | Maximum stacksize for task 349: unlimited
  | Maximum stacksize for task 350: unlimited
  | Maximum stacksize for task 351: unlimited
  | Maximum stacksize for task 352: unlimited
  | Maximum stacksize for task 353: unlimited
  | Maximum stacksize for task 354: unlimited
  | Maximum stacksize for task 355: unlimited
  | Maximum stacksize for task 356: unlimited
  | Maximum stacksize for task 357: unlimited
  | Maximum stacksize for task 358: unlimited
  | Maximum stacksize for task 359: unlimited
  | Maximum stacksize for task 360: unlimited
  | Maximum stacksize for task 361: unlimited
  | Maximum stacksize for task 362: unlimited
  | Maximum stacksize for task 363: unlimited
  | Maximum stacksize for task 364: unlimited
  | Maximum stacksize for task 365: unlimited
  | Maximum stacksize for task 366: unlimited
  | Maximum stacksize for task 367: unlimited
  | Maximum stacksize for task 368: unlimited
  | Maximum stacksize for task 369: unlimited
  | Maximum stacksize for task 370: unlimited
  | Maximum stacksize for task 371: unlimited
  | Maximum stacksize for task 372: unlimited
  | Maximum stacksize for task 373: unlimited
  | Maximum stacksize for task 374: unlimited
  | Maximum stacksize for task 375: unlimited
  | Maximum stacksize for task 376: unlimited
  | Maximum stacksize for task 377: unlimited
  | Maximum stacksize for task 378: unlimited
  | Maximum stacksize for task 379: unlimited
  | Maximum stacksize for task 380: unlimited
  | Maximum stacksize for task 381: unlimited
  | Maximum stacksize for task 382: unlimited
  | Maximum stacksize for task 383: unlimited
  | Current stacksize for task 0: unlimited
  | Current stacksize for task 1: unlimited
  | Current stacksize for task 2: unlimited
  | Current stacksize for task 3: unlimited
  | Current stacksize for task 4: unlimited
  | Current stacksize for task 5: unlimited
  | Current stacksize for task 6: unlimited
  | Current stacksize for task 7: unlimited
  | Current stacksize for task 8: unlimited
  | Current stacksize for task 9: unlimited
  | Current stacksize for task 10: unlimited
  | Current stacksize for task 11: unlimited
  | Current stacksize for task 12: unlimited
  | Current stacksize for task 13: unlimited
  | Current stacksize for task 14: unlimited
  | Current stacksize for task 15: unlimited
  | Current stacksize for task 16: unlimited
  | Current stacksize for task 17: unlimited
  | Current stacksize for task 18: unlimited
  | Current stacksize for task 19: unlimited
  | Current stacksize for task 20: unlimited
  | Current stacksize for task 21: unlimited
  | Current stacksize for task 22: unlimited
  | Current stacksize for task 23: unlimited
  | Current stacksize for task 24: unlimited
  | Current stacksize for task 25: unlimited
  | Current stacksize for task 26: unlimited
  | Current stacksize for task 27: unlimited
  | Current stacksize for task 28: unlimited
  | Current stacksize for task 29: unlimited
  | Current stacksize for task 30: unlimited
  | Current stacksize for task 31: unlimited
  | Current stacksize for task 32: unlimited
  | Current stacksize for task 33: unlimited
  | Current stacksize for task 34: unlimited
  | Current stacksize for task 35: unlimited
  | Current stacksize for task 36: unlimited
  | Current stacksize for task 37: unlimited
  | Current stacksize for task 38: unlimited
  | Current stacksize for task 39: unlimited
  | Current stacksize for task 40: unlimited
  | Current stacksize for task 41: unlimited
  | Current stacksize for task 42: unlimited
  | Current stacksize for task 43: unlimited
  | Current stacksize for task 44: unlimited
  | Current stacksize for task 45: unlimited
  | Current stacksize for task 46: unlimited
  | Current stacksize for task 47: unlimited
  | Current stacksize for task 48: unlimited
  | Current stacksize for task 49: unlimited
  | Current stacksize for task 50: unlimited
  | Current stacksize for task 51: unlimited
  | Current stacksize for task 52: unlimited
  | Current stacksize for task 53: unlimited
  | Current stacksize for task 54: unlimited
  | Current stacksize for task 55: unlimited
  | Current stacksize for task 56: unlimited
  | Current stacksize for task 57: unlimited
  | Current stacksize for task 58: unlimited
  | Current stacksize for task 59: unlimited
  | Current stacksize for task 60: unlimited
  | Current stacksize for task 61: unlimited
  | Current stacksize for task 62: unlimited
  | Current stacksize for task 63: unlimited
  | Current stacksize for task 64: unlimited
  | Current stacksize for task 65: unlimited
  | Current stacksize for task 66: unlimited
  | Current stacksize for task 67: unlimited
  | Current stacksize for task 68: unlimited
  | Current stacksize for task 69: unlimited
  | Current stacksize for task 70: unlimited
  | Current stacksize for task 71: unlimited
  | Current stacksize for task 72: unlimited
  | Current stacksize for task 73: unlimited
  | Current stacksize for task 74: unlimited
  | Current stacksize for task 75: unlimited
  | Current stacksize for task 76: unlimited
  | Current stacksize for task 77: unlimited
  | Current stacksize for task 78: unlimited
  | Current stacksize for task 79: unlimited
  | Current stacksize for task 80: unlimited
  | Current stacksize for task 81: unlimited
  | Current stacksize for task 82: unlimited
  | Current stacksize for task 83: unlimited
  | Current stacksize for task 84: unlimited
  | Current stacksize for task 85: unlimited
  | Current stacksize for task 86: unlimited
  | Current stacksize for task 87: unlimited
  | Current stacksize for task 88: unlimited
  | Current stacksize for task 89: unlimited
  | Current stacksize for task 90: unlimited
  | Current stacksize for task 91: unlimited
  | Current stacksize for task 92: unlimited
  | Current stacksize for task 93: unlimited
  | Current stacksize for task 94: unlimited
  | Current stacksize for task 95: unlimited
  | Current stacksize for task 96: unlimited
  | Current stacksize for task 97: unlimited
  | Current stacksize for task 98: unlimited
  | Current stacksize for task 99: unlimited
  | Current stacksize for task 100: unlimited
  | Current stacksize for task 101: unlimited
  | Current stacksize for task 102: unlimited
  | Current stacksize for task 103: unlimited
  | Current stacksize for task 104: unlimited
  | Current stacksize for task 105: unlimited
  | Current stacksize for task 106: unlimited
  | Current stacksize for task 107: unlimited
  | Current stacksize for task 108: unlimited
  | Current stacksize for task 109: unlimited
  | Current stacksize for task 110: unlimited
  | Current stacksize for task 111: unlimited
  | Current stacksize for task 112: unlimited
  | Current stacksize for task 113: unlimited
  | Current stacksize for task 114: unlimited
  | Current stacksize for task 115: unlimited
  | Current stacksize for task 116: unlimited
  | Current stacksize for task 117: unlimited
  | Current stacksize for task 118: unlimited
  | Current stacksize for task 119: unlimited
  | Current stacksize for task 120: unlimited
  | Current stacksize for task 121: unlimited
  | Current stacksize for task 122: unlimited
  | Current stacksize for task 123: unlimited
  | Current stacksize for task 124: unlimited
  | Current stacksize for task 125: unlimited
  | Current stacksize for task 126: unlimited
  | Current stacksize for task 127: unlimited
  | Current stacksize for task 128: unlimited
  | Current stacksize for task 129: unlimited
  | Current stacksize for task 130: unlimited
  | Current stacksize for task 131: unlimited
  | Current stacksize for task 132: unlimited
  | Current stacksize for task 133: unlimited
  | Current stacksize for task 134: unlimited
  | Current stacksize for task 135: unlimited
  | Current stacksize for task 136: unlimited
  | Current stacksize for task 137: unlimited
  | Current stacksize for task 138: unlimited
  | Current stacksize for task 139: unlimited
  | Current stacksize for task 140: unlimited
  | Current stacksize for task 141: unlimited
  | Current stacksize for task 142: unlimited
  | Current stacksize for task 143: unlimited
  | Current stacksize for task 144: unlimited
  | Current stacksize for task 145: unlimited
  | Current stacksize for task 146: unlimited
  | Current stacksize for task 147: unlimited
  | Current stacksize for task 148: unlimited
  | Current stacksize for task 149: unlimited
  | Current stacksize for task 150: unlimited
  | Current stacksize for task 151: unlimited
  | Current stacksize for task 152: unlimited
  | Current stacksize for task 153: unlimited
  | Current stacksize for task 154: unlimited
  | Current stacksize for task 155: unlimited
  | Current stacksize for task 156: unlimited
  | Current stacksize for task 157: unlimited
  | Current stacksize for task 158: unlimited
  | Current stacksize for task 159: unlimited
  | Current stacksize for task 160: unlimited
  | Current stacksize for task 161: unlimited
  | Current stacksize for task 162: unlimited
  | Current stacksize for task 163: unlimited
  | Current stacksize for task 164: unlimited
  | Current stacksize for task 165: unlimited
  | Current stacksize for task 166: unlimited
  | Current stacksize for task 167: unlimited
  | Current stacksize for task 168: unlimited
  | Current stacksize for task 169: unlimited
  | Current stacksize for task 170: unlimited
  | Current stacksize for task 171: unlimited
  | Current stacksize for task 172: unlimited
  | Current stacksize for task 173: unlimited
  | Current stacksize for task 174: unlimited
  | Current stacksize for task 175: unlimited
  | Current stacksize for task 176: unlimited
  | Current stacksize for task 177: unlimited
  | Current stacksize for task 178: unlimited
  | Current stacksize for task 179: unlimited
  | Current stacksize for task 180: unlimited
  | Current stacksize for task 181: unlimited
  | Current stacksize for task 182: unlimited
  | Current stacksize for task 183: unlimited
  | Current stacksize for task 184: unlimited
  | Current stacksize for task 185: unlimited
  | Current stacksize for task 186: unlimited
  | Current stacksize for task 187: unlimited
  | Current stacksize for task 188: unlimited
  | Current stacksize for task 189: unlimited
  | Current stacksize for task 190: unlimited
  | Current stacksize for task 191: unlimited
  | Current stacksize for task 192: unlimited
  | Current stacksize for task 193: unlimited
  | Current stacksize for task 194: unlimited
  | Current stacksize for task 195: unlimited
  | Current stacksize for task 196: unlimited
  | Current stacksize for task 197: unlimited
  | Current stacksize for task 198: unlimited
  | Current stacksize for task 199: unlimited
  | Current stacksize for task 200: unlimited
  | Current stacksize for task 201: unlimited
  | Current stacksize for task 202: unlimited
  | Current stacksize for task 203: unlimited
  | Current stacksize for task 204: unlimited
  | Current stacksize for task 205: unlimited
  | Current stacksize for task 206: unlimited
  | Current stacksize for task 207: unlimited
  | Current stacksize for task 208: unlimited
  | Current stacksize for task 209: unlimited
  | Current stacksize for task 210: unlimited
  | Current stacksize for task 211: unlimited
  | Current stacksize for task 212: unlimited
  | Current stacksize for task 213: unlimited
  | Current stacksize for task 214: unlimited
  | Current stacksize for task 215: unlimited
  | Current stacksize for task 216: unlimited
  | Current stacksize for task 217: unlimited
  | Current stacksize for task 218: unlimited
  | Current stacksize for task 219: unlimited
  | Current stacksize for task 220: unlimited
  | Current stacksize for task 221: unlimited
  | Current stacksize for task 222: unlimited
  | Current stacksize for task 223: unlimited
  | Current stacksize for task 224: unlimited
  | Current stacksize for task 225: unlimited
  | Current stacksize for task 226: unlimited
  | Current stacksize for task 227: unlimited
  | Current stacksize for task 228: unlimited
  | Current stacksize for task 229: unlimited
  | Current stacksize for task 230: unlimited
  | Current stacksize for task 231: unlimited
  | Current stacksize for task 232: unlimited
  | Current stacksize for task 233: unlimited
  | Current stacksize for task 234: unlimited
  | Current stacksize for task 235: unlimited
  | Current stacksize for task 236: unlimited
  | Current stacksize for task 237: unlimited
  | Current stacksize for task 238: unlimited
  | Current stacksize for task 239: unlimited
  | Current stacksize for task 240: unlimited
  | Current stacksize for task 241: unlimited
  | Current stacksize for task 242: unlimited
  | Current stacksize for task 243: unlimited
  | Current stacksize for task 244: unlimited
  | Current stacksize for task 245: unlimited
  | Current stacksize for task 246: unlimited
  | Current stacksize for task 247: unlimited
  | Current stacksize for task 248: unlimited
  | Current stacksize for task 249: unlimited
  | Current stacksize for task 250: unlimited
  | Current stacksize for task 251: unlimited
  | Current stacksize for task 252: unlimited
  | Current stacksize for task 253: unlimited
  | Current stacksize for task 254: unlimited
  | Current stacksize for task 255: unlimited
  | Current stacksize for task 256: unlimited
  | Current stacksize for task 257: unlimited
  | Current stacksize for task 258: unlimited
  | Current stacksize for task 259: unlimited
  | Current stacksize for task 260: unlimited
  | Current stacksize for task 261: unlimited
  | Current stacksize for task 262: unlimited
  | Current stacksize for task 263: unlimited
  | Current stacksize for task 264: unlimited
  | Current stacksize for task 265: unlimited
  | Current stacksize for task 266: unlimited
  | Current stacksize for task 267: unlimited
  | Current stacksize for task 268: unlimited
  | Current stacksize for task 269: unlimited
  | Current stacksize for task 270: unlimited
  | Current stacksize for task 271: unlimited
  | Current stacksize for task 272: unlimited
  | Current stacksize for task 273: unlimited
  | Current stacksize for task 274: unlimited
  | Current stacksize for task 275: unlimited
  | Current stacksize for task 276: unlimited
  | Current stacksize for task 277: unlimited
  | Current stacksize for task 278: unlimited
  | Current stacksize for task 279: unlimited
  | Current stacksize for task 280: unlimited
  | Current stacksize for task 281: unlimited
  | Current stacksize for task 282: unlimited
  | Current stacksize for task 283: unlimited
  | Current stacksize for task 284: unlimited
  | Current stacksize for task 285: unlimited
  | Current stacksize for task 286: unlimited
  | Current stacksize for task 287: unlimited
  | Current stacksize for task 288: unlimited
  | Current stacksize for task 289: unlimited
  | Current stacksize for task 290: unlimited
  | Current stacksize for task 291: unlimited
  | Current stacksize for task 292: unlimited
  | Current stacksize for task 293: unlimited
  | Current stacksize for task 294: unlimited
  | Current stacksize for task 295: unlimited
  | Current stacksize for task 296: unlimited
  | Current stacksize for task 297: unlimited
  | Current stacksize for task 298: unlimited
  | Current stacksize for task 299: unlimited
  | Current stacksize for task 300: unlimited
  | Current stacksize for task 301: unlimited
  | Current stacksize for task 302: unlimited
  | Current stacksize for task 303: unlimited
  | Current stacksize for task 304: unlimited
  | Current stacksize for task 305: unlimited
  | Current stacksize for task 306: unlimited
  | Current stacksize for task 307: unlimited
  | Current stacksize for task 308: unlimited
  | Current stacksize for task 309: unlimited
  | Current stacksize for task 310: unlimited
  | Current stacksize for task 311: unlimited
  | Current stacksize for task 312: unlimited
  | Current stacksize for task 313: unlimited
  | Current stacksize for task 314: unlimited
  | Current stacksize for task 315: unlimited
  | Current stacksize for task 316: unlimited
  | Current stacksize for task 317: unlimited
  | Current stacksize for task 318: unlimited
  | Current stacksize for task 319: unlimited
  | Current stacksize for task 320: unlimited
  | Current stacksize for task 321: unlimited
  | Current stacksize for task 322: unlimited
  | Current stacksize for task 323: unlimited
  | Current stacksize for task 324: unlimited
  | Current stacksize for task 325: unlimited
  | Current stacksize for task 326: unlimited
  | Current stacksize for task 327: unlimited
  | Current stacksize for task 328: unlimited
  | Current stacksize for task 329: unlimited
  | Current stacksize for task 330: unlimited
  | Current stacksize for task 331: unlimited
  | Current stacksize for task 332: unlimited
  | Current stacksize for task 333: unlimited
  | Current stacksize for task 334: unlimited
  | Current stacksize for task 335: unlimited
  | Current stacksize for task 336: unlimited
  | Current stacksize for task 337: unlimited
  | Current stacksize for task 338: unlimited
  | Current stacksize for task 339: unlimited
  | Current stacksize for task 340: unlimited
  | Current stacksize for task 341: unlimited
  | Current stacksize for task 342: unlimited
  | Current stacksize for task 343: unlimited
  | Current stacksize for task 344: unlimited
  | Current stacksize for task 345: unlimited
  | Current stacksize for task 346: unlimited
  | Current stacksize for task 347: unlimited
  | Current stacksize for task 348: unlimited
  | Current stacksize for task 349: unlimited
  | Current stacksize for task 350: unlimited
  | Current stacksize for task 351: unlimited
  | Current stacksize for task 352: unlimited
  | Current stacksize for task 353: unlimited
  | Current stacksize for task 354: unlimited
  | Current stacksize for task 355: unlimited
  | Current stacksize for task 356: unlimited
  | Current stacksize for task 357: unlimited
  | Current stacksize for task 358: unlimited
  | Current stacksize for task 359: unlimited
  | Current stacksize for task 360: unlimited
  | Current stacksize for task 361: unlimited
  | Current stacksize for task 362: unlimited
  | Current stacksize for task 363: unlimited
  | Current stacksize for task 364: unlimited
[...]
  SCF   24 :  0.52E-12 |  0.30E-03 |  -0.12E+00 |  0.17E-04 |             . |       14.534 s |       14.484 s
  SCF   25 :  0.43E-13 |  0.27E-03 |  -0.41E+00 |  0.85E-04 |             . |       14.514 s |       14.465 s
  SCF   26 :  0.26E-12 |  0.19E-03 |  -0.37E+00 |  0.71E-04 |             . |       14.510 s |       14.460 s
  SCF   27 :  0.88E-12 |  0.14E-03 |  -0.11E+00 | -0.24E-04 |             . |       14.544 s |       14.500 s
  SCF   28 : -0.29E-15 |  0.12E-03 |  -0.82E-01 | -0.19E-04 |             . |       14.555 s |       14.505 s
  SCF   29 :  0.48E-12 |  0.11E-03 |  -0.36E-01 |  0.21E-04 |             . |       14.536 s |       14.491 s
  SCF   30 :  0.24E-12 |  0.88E-04 |   0.32E-01 | -0.19E-04 |             . |       14.525 s |       14.477 s
  SCF   31 : -0.18E-12 |  0.63E-04 |   0.90E-02 | -0.88E-05 |             . |       14.566 s |       14.499 s
  SCF   32 : -0.43E-13 |  0.56E-04 |   0.13E-01 | -0.21E-04 |             . |       14.538 s |       14.488 s
  SCF   33 :  0.28E-12 |  0.36E-04 |  -0.27E-01 | -0.57E-06 |             . |       14.569 s |       14.515 s
  SCF   34 : -0.49E-12 |  0.27E-04 |  -0.29E-01 | -0.15E-05 |             . |       15.068 s |       14.508 s
  SCF   35 : -0.72E-12 |  0.19E-04 |  -0.66E-02 | -0.16E-05 |             . |       14.536 s |       14.488 s
  SCF   36 :  0.31E-12 |  0.16E-04 |  -0.12E-01 | -0.26E-05 |             . |       14.550 s |       14.501 s
  SCF   37 :  0.66E-12 |  0.11E-04 |   0.15E-03 | -0.25E-05 |             . |       14.535 s |       14.484 s
  SCF   38 : -0.25E-12 |  0.81E-05 |   0.37E-02 | -0.89E-06 |             . |       14.517 s |       14.472 s
  SCF   39 :  0.60E-12 |  0.74E-05 |   0.12E-01 |  0.50E-06 |             . |       14.555 s |       14.504 s
  SCF   40 : -0.23E-12 |  0.55E-05 |   0.13E-01 | -0.82E-06 |             . |       14.514 s |       14.467 s
  SCF   41 :  0.31E-12 |  0.40E-05 |   0.31E-02 |  0.30E-06 |             . |       14.531 s |       14.485 s
  SCF   42 :  0.55E-12 |  0.37E-05 |   0.43E-02 |  0.94E-06 |             . |       14.523 s |       14.471 s
  SCF   43 :  0.23E-12 |  0.32E-05 |   0.99E-02 | -0.70E-06 |             . |       14.539 s |       14.489 s
  SCF   44 :  0.29E-12 |  0.20E-05 |   0.44E-02 | -0.63E-07 |             . |       14.518 s |       14.469 s
  SCF   45 :  0.55E-12 |  0.13E-05 |   0.44E-03 |  0.83E-06 |             . |       14.539 s |       14.493 s
  SCF   46 :  0.59E-13 |  0.12E-05 |  -0.21E-03 | -0.38E-07 |             . |       14.529 s |       14.481 s
  SCF   47 :  0.46E-12 |  0.11E-05 |  -0.23E-02 | -0.39E-06 |             . |       14.529 s |       14.476 s
  SCF   48 :  0.10E-11 |  0.68E-06 |  -0.14E-02 |  0.31E-06 |             . |       14.564 s |       14.521 s
  SCF   49 :  0.45E-12 |  0.52E-06 |  -0.10E-02 |  0.16E-06 |      0.96E+01 |       14.799 s |       14.752 s
  SCF   50 :  0.82E-12 |  0.37E-06 |  -0.84E-03 |  0.70E-07 |      0.50E-04 |       36.311 s |       36.270 s

  Total energy components:
  | Sum of eigenvalues            :     -536650.07055981 Ha   -14602991.41195513 eV
  | XC energy correction          :      -16479.40145111 Ha     -448427.32921590 eV
  | XC potential correction       :       21553.89329662 Ha      586511.27796640 eV
  | Free-atom electrostatic energy:     -323675.66232614 Ha    -8807662.90084879 eV
  | Hartree energy correction     :         188.62211108 Ha        5132.66878978 eV
  | Entropy correction            :          -0.01065688 Ha          -0.28998839 eV
  | ---------------------------
  | Total energy                  :     -855062.61892935 Ha   -23267437.69526364 eV
  | Total energy, T -> 0          :     -855062.62958623 Ha   -23267437.98525204 eV  <-- do not rely on this value for anything but (periodic) metals
  | Electronic free energy        :     -855062.64024311 Ha   -23267438.27524043 eV

  Derived energy quantities:
  | Kinetic energy                :      950048.83376528 Ha    25852144.10936373 eV
  | Electrostatic energy          :    -1788632.05124353 Ha   -48671154.47541147 eV
  | Energy correction for multipole
  | error in Hartree potential    :           0.04246411 Ha           1.15550724 eV
  | Sum of eigenvalues per atom                           :     -304228.98774907 eV
  | Total energy (T->0) per atom                          :     -484738.29135942 eV  <-- do not rely on this value for anything but (periodic) metals
  | Electronic free energy per atom                       :     -484738.29740084 eV
  What follows are estimated values for band gap, HOMO, LUMO, etc.
  | They are estimated on a discrete k-point grid and not necessarily exact.
  | For converged numbers, create a DOS and/or band structure plot on a denser k-grid.

  Highest occupied state (VBM) at     -6.80248340 eV (relative to internal zero)
  | Occupation number:      1.00086153
  | K-point:      54 at    0.333333    0.166667    0.333333 (in units of recip. lattice)

  Lowest unoccupied state (CBM) at    -6.80225981 eV (relative to internal zero)
  | Occupation number:      0.99960010
  | K-point:      56 at    0.333333    0.166667    0.666667 (in units of recip. lattice)

  ESTIMATED overall HOMO-LUMO gap:      0.00022358 eV between HOMO at k-point 54 and LUMO at k-point 56
  | This appears to be an indirect band gap.
  | Smallest direct gap :      0.00977187 eV for k_point 35 at    0.166667    0.500000    0.000000 (in units of recip. lattice)
  However, this system has fractional occupation numbers. Since we use a finite k-point grid,
  this material is metallic within the approximate finite broadening function (occupation_type)
  applied to determine the occupation numbers.

  | Chemical Potential                          :    -6.80233069 eV
  | Note that, for insulating systems, the printed 'chemical potential' value is not uniquely defined.
  | It can be anywhere in the energy gap, as long as it correctly separates occupied and unoccupied states.
  | In systems with a gap, the physically relevant chemical potential is the VBM or HOMO.

  Self-consistency cycle converged.

  +-------------------------------------------------------------------+
  |              Analytical stress tensor - Symmetrized               |
  |                  Cartesian components [eV/A**3]                   |
  +-------------------------------------------------------------------+
  |                x                y                z                |
  |                                                                   |
  |  x        -0.00307879      -0.00071205       0.00017870           |
  |  y        -0.00071205      -0.00303814       0.00043116           |
  |  z         0.00017870       0.00043116      -0.00685973           |
  |                                                                   |
  |  Pressure:       0.00432555   [eV/A**3]                           |
  |                                                                   |
  +-------------------------------------------------------------------+
  Removing unitary transformations (pure translations, rotations) from forces on atoms.
  Atomic forces before filtering:
  | Net force on center of mass :  -0.131065E-02 -0.184448E-02 -0.625180E-04 eV/A
  Atomic forces after filtering:
  | Net force on center of mass :   0.780527E-15  0.102584E-14 -0.107044E-14 eV/A

  Energy and forces in a compact form:
  | Total energy uncorrected      :         -0.232674376952636E+08 eV
  | Total energy corrected        :         -0.232674379852520E+08 eV  <-- do not rely on this value for anything but (periodic) metals
  | Electronic free energy        :         -0.232674382752404E+08 eV
  Total atomic forces (unitary forces cleaned) [eV/Ang]:
  |    1         -0.450233050730948E+00          0.196767791693890E+00          0.277839620093880E+00
  |    2         -0.396180885899895E+00          0.294314198733258E+00          0.433864359920000E+00
  |    3         -0.108017864175033E+00         -0.489494948522865E+00          0.200941846719205E+00
  |    4          0.361066349458915E+00          0.696094922437743E+00         -0.356183147370640E+00
  |    5          0.850580487039694E+00          0.559759366312527E+00          0.596568588315683E+00
  |    6          0.977603071252781E-01         -0.232632706587290E+00         -0.312264110366776E+00
  |    7         -0.838955575171584E+00          0.347579181803456E-01         -0.510240681511686E+00
  |    8          0.436222634387258E+00          0.791156459422182E+00         -0.535472978158756E+00
  |    9         -0.133480448654717E+00         -0.659390855528916E+00          0.751460977740541E+00
  |   10         -0.374106793915244E-02         -0.133509702920844E+00         -0.372252079689983E-01
  |   11         -0.612320667210492E+00          0.352976497832182E+00          0.794482592624161E+00
  |   12         -0.205403408540995E+00         -0.742247162111865E+00          0.983119046949594E-01
  |   13         -0.798053374722994E-02          0.663227809034948E+00         -0.485179797842764E+00
  |   14         -0.295901228103712E+00         -0.637387354380447E+00         -0.410251102298621E+00
  |   15          0.628459069718484E-01         -0.594533141370433E+00         -0.495841028091665E+00
  |   16          0.102746968531367E+00         -0.487239493013506E+00         -0.257998573400543E+00
  |   17         -0.658034512342389E+00         -0.126301392296769E+00          0.318128724825825E+00
  |   18          0.709179918252358E+00         -0.507898651623726E+00          0.159127160953193E+00
  |   19          0.405016121208432E+00         -0.219205457756581E+00         -0.448293365569808E+00
  |   20          0.813031301957594E-01         -0.104685055493226E+00         -0.392835750372150E+00
  |   21         -0.880568719756667E-01         -0.289298173162866E+00          0.215560141527613E+00
  |   22          0.389978871575465E-01          0.117895318065426E+00         -0.233024302900232E+00
  |   23         -0.601943968739166E-01         -0.194188595656693E+00          0.144395689124552E+00
  |   24         -0.251553442374834E+00          0.403749735339623E+00          0.293074017636265E+00
  |   25         -0.827754519954113E+00          0.615437868028433E-01          0.312186926245113E+00
  |   26          0.252673301461681E+00         -0.401469760540971E+00          0.825305688425893E-01
  |   27          0.320367668064025E+00          0.121334307536841E+01          0.573177082095216E-01
  |   28         -0.392800966402467E+00          0.290715868931958E+00         -0.673040711811936E-01
  |   29         -0.473663012272328E+00         -0.482637868305383E+00         -0.105386682104847E+00
  |   30         -0.246914581947049E+00          0.125960394695392E+01          0.364972053734546E+00
  |   31          0.448967552966154E+00          0.152762607470904E+00         -0.790946219974938E+00
  |   32          0.243474813051801E+00         -0.841311981970455E+00          0.120916309255224E+00
  |   33          0.453602459685564E+00          0.167020685466583E+00          0.575260516381741E-02
  |   34          0.744080081337575E+00         -0.182530625822324E+00          0.603983661203563E-01
  |   35          0.282793437337794E+00          0.207146385915958E+00          0.405928859421370E+00
  |   36          0.973510058867994E+00         -0.179951884803672E+00         -0.466555415203970E+00
  |   37          0.346923605331926E+00         -0.116458401341569E+00          0.516044086005155E+00
  |   38          0.741365744052976E+00          0.522832033476410E+00          0.308048310933142E+00
  |   39          0.208354044214340E-01         -0.351087752033582E+00          0.139676009423213E+00
  |   40         -0.319788017923922E+00          0.156473001219568E+00          0.220685730861946E+00
  |   41         -0.258546519382115E+00         -0.119471228737016E+01          0.460181686365242E+00
  |   42         -0.242781133921589E+00          0.217503746292504E+00         -0.696864316162280E+00
  |   43          0.606297360808504E+00          0.411144515854795E+00          0.163753052851877E+00
  |   44         -0.901318978624179E+00          0.255611159411972E+00          0.624313723826165E+00
  |   45         -0.528097557794341E+00         -0.501640308186032E+00         -0.602001680794993E+00
  |   46         -0.541052319364331E-01          0.308974838956171E+00          0.209704447352371E+00
  |   47         -0.417397359861878E+00          0.525469459753766E+00         -0.410807005698660E+00
  |   48          0.192610636045095E+00         -0.191031568127706E+00         -0.721490631814009E+00


------------------------------------------------------------------------------
  Final output of selected total energy values:

  The following output summarizes some interesting total energy values
  at the end of a run (AFTER all relaxation, molecular dynamics, etc.).

  | Total energy of the DFT / Hartree-Fock s.c.f. calculation      :      -23267437.695263643 eV
  | Final zero-broadening corrected energy (caution - metals only) :      -23267437.985252038 eV
  | For reference only, the value of 1 Hartree used in FHI-aims is :             27.211384500 eV
  | For reference only, the overall average (free atom contribution
  | + realspace contribution) of the electrostatic potential after
  | s.c.f. convergence is                                          :            -39.427373870 eV

  Before relying on these values, please be sure to understand exactly which
  total energy value is referred to by a given number. Different objects may
  all carry the same name 'total energy'. Definitions:

  Total energy of the DFT / Hartree-Fock s.c.f. calculation:
  | Note that this energy does not include ANY quantities calculated after the
  | s.c.f. cycle, in particular not ANY RPA, MP2, etc. many-body perturbation terms.

  Final zero-broadening corrected energy:
  | For metallic systems only, a broadening of the occupation numbers at the Fermi
  | level can be extrapolated back to zero broadening by an electron-gas inspired
  | formula. For all systems that are not real metals, this value can be
  | meaningless and should be avoided.

------------------------------------------------------------------------------
  Methods described in the following list of references were used in this FHI-aims run.
  If you publish the results, please make sure to cite these reference if they apply.
  FHI-aims is an academic code, and for our developers (often, Ph.D. students
  and postdocs), scientific credit in the community is essential.
  Thank you for helping us!

  For any use of FHI-aims, please cite:

    Volker Blum, Ralf Gehrke, Felix Hanke, Paula Havu, Ville Havu,
    Xinguo Ren, Karsten Reuter, and Matthias Scheffler
    'Ab initio molecular simulations with numeric atom-centered orbitals'
    Computer Physics Communications 180, 2175-2196 (2009)
    http://doi.org/10.1016/j.cpc.2009.06.022


  For the analytical stress tensor used in your run, please cite:

    Franz Knuth, Christian Carbogno, Viktor Atalla, Volker Blum, Matthias Scheffler
    'All-electron formalism for total energy strain derivatives and
    stress tensor components for numeric atom-centered orbitals'
    Computer Physics Communications 190, 33-50 (2015).
    http://doi.org/10.1016/j.cpc.2015.01.003


  The provided symmetry information was generated with SPGlib:

    Atsushi Togo, Yusuke Seto, Dimitar Pashov
    SPGlib 1.7.3 obtained from http://spglib.sourceforge.net
    Copyright (C) 2008 Atsushi Togo


  The ELSI infrastructure was used in your run to solve the Kohn-Sham electronic structure.
  Please check out http://elsi-interchange.org to learn more.
  If scalability is important for your project, please acknowledge ELSI by citing:

    V. W-z. Yu, F. Corsetti, A. Garcia, W. P. Huhn, M. Jacquelin, W. Jia,
    B. Lange, L. Lin, J. Lu, W. Mi, A. Seifitokaldani, A. Vazquez-Mayagoitia,
    C. Yang, H. Yang, and V. Blum
    'ELSI: A unified software interface for Kohn-Sham electronic structure solvers'
    Computer Physics Communications 222, 267-285 (2018).
    http://doi.org/10.1016/j.cpc.2017.09.007


  For the real-space grid partitioning and parallelization used in this calculation, please cite:

    Ville Havu, Volker Blum, Paula Havu, and Matthias Scheffler,
    'Efficient O(N) integration for all-electron electronic structure calculation'
    'using numerically tabulated basis functions'
    Journal of Computational Physics 228, 8367-8379 (2009).
    http://doi.org/10.1016/j.jcp.2009.08.008

  Of course, there are many other important community references, e.g., those cited in the
  above references. Our list is limited to references that describe implementations in the
  FHI-aims code. The reason is purely practical (length of this list) - please credit others as well.

 * A warning was issued further up regarding the accuracy of onsite integrals.
   An integral with a negative eigenvalue was among the flagged integrals.
   In most standard situations, this warning is probably harmless.
   If needed, this can be verified by adjusting the radial_multiplier flag.

   One or more s.c.f. cycles took more than 50 s.c.f. iterations.
   It might be worth adjusting your convergence settings. For example,
   metals need a larger broadening and a smaller "charge_mix_param" value than semiconductors.

------------------------------------------------------------
          Leaving FHI-aims.
          Date     :  20230621, Time     :  174613.841

          Computational steps:
          | Number of self-consistency cycles          :           50
          | Number of SCF (re)initializations          :            1

          Detailed time accounting                     :  max(cpu_time)    wall_clock(cpu1)
          | Total time                                  :      773.962 s         774.271 s
          | Preparation time                            :        0.315 s           0.315 s
          | Boundary condition initalization            :        0.420 s           0.420 s
          | Grid partitioning                           :        0.157 s           0.156 s
          | Preloading free-atom quantities on grid     :        0.092 s           0.092 s
          | Free-atom superposition energy              :        0.011 s           0.012 s
          | Total time for integrations                 :       43.222 s          43.229 s
          | Total time for solution of K.-S. equations  :      572.006 s         571.978 s
          | Total time for density & force components   :      138.194 s         138.184 s
          | Total time for mixing & preconditioning     :       10.100 s           7.189 s
          | Total time for Hartree multipole update     :        0.463 s           0.465 s
          | Total time for Hartree multipole sum        :        6.235 s           6.233 s
          | Total time for total energy evaluation      :        0.358 s           0.338 s
          | Total time NSC force correction             :        0.342 s           0.343 s
          | Total time for scaled ZORA corrections      :        0.000 s           0.000 s

          Partial memory accounting:
          | Residual value for overall tracked memory usage across tasks:     0.000000 MB (should be 0.000000 MB)
          | Peak values for overall tracked memory usage:
          |   Minimum:      268.902 MB (on task   0 after allocating temp_ham_ovlp)
          |   Maximum:      296.465 MB (on task   4 after allocating temp_ham_ovlp)
          |   Average:      282.684 MB
          | Largest tracked array allocation:
          |   Minimum:       57.165 MB (overlap_matrix on task   0)
          |   Maximum:       57.165 MB (overlap_matrix on task   0)
          |   Average:       57.165 MB
          Note:  These values currently only include a subset of arrays which are explicitly tracked.
          The "true" memory usage will be greater.

          Have a nice day.
------------------------------------------------------------
