<?xml version="1.0" encoding="ISO-8859-1"?>
<modeling>
 <generator>
  <i name="program" type="string">vasp </i>
  <i name="version" type="string">6.3.2  </i>
  <i name="subversion" type="string">27Jun22 (build Jul 04 2022 11:47:50) complex                          parallel </i>
  <i name="platform" type="string">TETRA_NSC1 </i>
  <i name="date" type="string">2023 08 17 </i>
  <i name="time" type="string">17:07:01 </i>
 </generator>
 <incar>
  <i type="string" name="PREC">Accurate</i>
  <i type="int" name="NSIM">    16</i>
  <i type="int" name="ISPIN">     1</i>
  <i type="int" name="NELMIN">     5</i>
  <i type="int" name="IBRION">     0</i>
  <i name="EDIFF">      0.00001000</i>
  <i type="int" name="NSW">   100</i>
  <i type="int" name="ISIF">     2</i>
  <i type="int" name="ISYM">     0</i>
  <i name="ENCUT">    400.00000000</i>
  <i name="POTIM">      1.00000000</i>
  <i name="TEBEG">    300.00000000</i>
  <i name="SMASS">      0.00000000</i>
  <i type="string" name="LREAL">A</i>
  <i type="int" name="ISMEAR">     0</i>
  <i name="SIGMA">      0.05000000</i>
  <i type="logical" name="LWAVE"> F  </i>
  <i type="logical" name="LCHARG"> F  </i>
  <i type="string" name="GGA">PE</i>
  <i type="int" name="MDALGO">     2</i>
 </incar>
 <primitive_cell>
  <structure name="primitive_cell" >
   <crystal>
    <varray name="basis" >
     <v>      10.93745600       0.00000000       0.00000000 </v>
     <v>       0.00000000      10.93745600       0.00000000 </v>
     <v>       0.00000000       0.00000000      10.93745600 </v>
    </varray>
    <i name="volume">   1308.42537116 </i>
    <varray name="rec_basis" >
     <v>       0.09142894       0.00000000       0.00000000 </v>
     <v>       0.00000000       0.09142894       0.00000000 </v>
     <v>       0.00000000       0.00000000       0.09142894 </v>
    </varray>
   </crystal>
   <varray name="positions" >
    <v>       0.62500000       0.37500000       0.37500000 </v>
    <v>       0.87500000       0.62500000       0.37500000 </v>
    <v>       0.62500000       0.12500000       0.62500000 </v>
    <v>       0.87500000       0.37500000       0.62500000 </v>
    <v>       0.87500000       0.12500000       0.87500000 </v>
    <v>       0.12500000       0.62500000       0.12500000 </v>
    <v>       0.37500000       0.87500000       0.12500000 </v>
    <v>       0.12500000       0.37500000       0.37500000 </v>
    <v>       0.62500000       0.12500000       0.12500000 </v>
    <v>       0.87500000       0.37500000       0.12500000 </v>
    <v>       0.87500000       0.12500000       0.37500000 </v>
    <v>       0.12500000       0.12500000       0.12500000 </v>
    <v>       0.37500000       0.37500000       0.12500000 </v>
    <v>       0.62500000       0.62500000       0.12500000 </v>
    <v>       0.87500000       0.87500000       0.12500000 </v>
    <v>       0.37500000       0.12500000       0.37500000 </v>
    <v>       0.87500000       0.62500000       0.87500000 </v>
    <v>       0.12500000       0.87500000       0.37500000 </v>
    <v>       0.12500000       0.62500000       0.62500000 </v>
    <v>       0.37500000       0.87500000       0.62500000 </v>
    <v>       0.12500000       0.37500000       0.87500000 </v>
    <v>       0.37500000       0.62500000       0.87500000 </v>
    <v>       0.62500000       0.87500000       0.87500000 </v>
    <v>       0.12500000       0.87500000       0.87500000 </v>
    <v>       0.37500000       0.62500000       0.37500000 </v>
    <v>       0.62500000       0.87500000       0.37500000 </v>
    <v>       0.12500000       0.12500000       0.62500000 </v>
    <v>       0.37500000       0.37500000       0.62500000 </v>
    <v>       0.62500000       0.62500000       0.62500000 </v>
    <v>       0.87500000       0.87500000       0.62500000 </v>
    <v>       0.37500000       0.12500000       0.87500000 </v>
    <v>       0.62500000       0.37500000       0.87500000 </v>
    <v>       0.50000000       0.50000000       0.00000000 </v>
    <v>       0.75000000       0.75000000       0.00000000 </v>
    <v>       0.25000000       0.00000000       0.25000000 </v>
    <v>       0.50000000       0.25000000       0.25000000 </v>
    <v>       0.75000000       0.50000000       0.25000000 </v>
    <v>       0.00000000       0.75000000       0.25000000 </v>
    <v>       0.50000000       0.00000000       0.50000000 </v>
    <v>       0.75000000       0.25000000       0.50000000 </v>
    <v>       0.00000000       0.00000000       0.00000000 </v>
    <v>       0.50000000       0.00000000       0.00000000 </v>
    <v>       0.75000000       0.25000000       0.00000000 </v>
    <v>       0.00000000       0.50000000       0.00000000 </v>
    <v>       0.75000000       0.00000000       0.25000000 </v>
    <v>       0.00000000       0.25000000       0.25000000 </v>
    <v>       0.00000000       0.00000000       0.50000000 </v>
    <v>       0.25000000       0.25000000       0.00000000 </v>
    <v>       0.75000000       0.75000000       0.50000000 </v>
    <v>       0.25000000       0.00000000       0.75000000 </v>
    <v>       0.50000000       0.25000000       0.75000000 </v>
    <v>       0.75000000       0.50000000       0.75000000 </v>
    <v>       0.00000000       0.75000000       0.75000000 </v>
    <v>       0.25000000       0.75000000       0.50000000 </v>
    <v>       0.25000000       0.50000000       0.75000000 </v>
    <v>       0.50000000       0.75000000       0.75000000 </v>
    <v>       0.00000000       0.50000000       0.50000000 </v>
    <v>       0.75000000       0.00000000       0.75000000 </v>
    <v>       0.00000000       0.25000000       0.75000000 </v>
    <v>       0.25000000       0.75000000       0.00000000 </v>
    <v>       0.25000000       0.50000000       0.25000000 </v>
    <v>       0.50000000       0.75000000       0.25000000 </v>
    <v>       0.25000000       0.25000000       0.50000000 </v>
    <v>       0.50000000       0.50000000       0.50000000 </v>
   </varray>
  </structure>
  <varray name="primitive_index" >
   <v type="int" >        1 </v>
   <v type="int" >        2 </v>
   <v type="int" >        3 </v>
   <v type="int" >        4 </v>
   <v type="int" >        5 </v>
   <v type="int" >        6 </v>
   <v type="int" >        7 </v>
   <v type="int" >        8 </v>
   <v type="int" >        9 </v>
   <v type="int" >       10 </v>
   <v type="int" >       11 </v>
   <v type="int" >       12 </v>
   <v type="int" >       13 </v>
   <v type="int" >       14 </v>
   <v type="int" >       15 </v>
   <v type="int" >       16 </v>
   <v type="int" >       17 </v>
   <v type="int" >       18 </v>
   <v type="int" >       19 </v>
   <v type="int" >       20 </v>
   <v type="int" >       21 </v>
   <v type="int" >       22 </v>
   <v type="int" >       23 </v>
   <v type="int" >       24 </v>
   <v type="int" >       25 </v>
   <v type="int" >       26 </v>
   <v type="int" >       27 </v>
   <v type="int" >       28 </v>
   <v type="int" >       29 </v>
   <v type="int" >       30 </v>
   <v type="int" >       31 </v>
   <v type="int" >       32 </v>
   <v type="int" >       33 </v>
   <v type="int" >       34 </v>
   <v type="int" >       35 </v>
   <v type="int" >       36 </v>
   <v type="int" >       37 </v>
   <v type="int" >       38 </v>
   <v type="int" >       39 </v>
   <v type="int" >       40 </v>
   <v type="int" >       41 </v>
   <v type="int" >       42 </v>
   <v type="int" >       43 </v>
   <v type="int" >       44 </v>
   <v type="int" >       45 </v>
   <v type="int" >       46 </v>
   <v type="int" >       47 </v>
   <v type="int" >       48 </v>
   <v type="int" >       49 </v>
   <v type="int" >       50 </v>
   <v type="int" >       51 </v>
   <v type="int" >       52 </v>
   <v type="int" >       53 </v>
   <v type="int" >       54 </v>
   <v type="int" >       55 </v>
   <v type="int" >       56 </v>
   <v type="int" >       57 </v>
   <v type="int" >       58 </v>
   <v type="int" >       59 </v>
   <v type="int" >       60 </v>
   <v type="int" >       61 </v>
   <v type="int" >       62 </v>
   <v type="int" >       63 </v>
   <v type="int" >       64 </v>
  </varray>
 </primitive_cell>
 <kpoints>
  <generation param="Gamma">
   <v type="int" name="divisions">       2        2        2 </v>
   <v name="usershift">      0.00000000       0.00000000       0.00000000 </v>
   <v name="genvec1">      0.50000000       0.00000000       0.00000000 </v>
   <v name="genvec2">      0.00000000       0.50000000       0.00000000 </v>
   <v name="genvec3">      0.00000000       0.00000000       0.50000000 </v>
   <v name="shift">      0.00000000       0.00000000       0.00000000 </v>
  </generation>
  <varray name="kpointlist" >
   <v>       0.00000000       0.00000000       0.00000000 </v>
   <v>       0.50000000       0.00000000       0.00000000 </v>
   <v>       0.00000000       0.50000000       0.00000000 </v>
   <v>       0.00000000       0.00000000       0.50000000 </v>
   <v>       0.50000000       0.50000000       0.00000000 </v>
   <v>       0.00000000       0.50000000       0.50000000 </v>
   <v>       0.50000000       0.00000000       0.50000000 </v>
   <v>       0.50000000       0.50000000       0.50000000 </v>
  </varray>
  <varray name="weights" >
   <v>       0.12500000 </v>
   <v>       0.12500000 </v>
   <v>       0.12500000 </v>
   <v>       0.12500000 </v>
   <v>       0.12500000 </v>
   <v>       0.12500000 </v>
   <v>       0.12500000 </v>
   <v>       0.12500000 </v>
  </varray>
 </kpoints>
 <parameters>
  <separator name="general" >
   <i type="string" name="SYSTEM">unknown system</i>
   <i type="logical" name="LCOMPAT"> F  </i>
  </separator>
  <separator name="electronic" >
   <i type="string" name="PREC">accura</i>
   <i name="ENMAX">    400.00000000</i>
   <i name="ENAUG">    322.06900000</i>
   <i name="EDIFF">      0.00001000</i>
   <i type="int" name="IALGO">    38</i>
   <i type="int" name="IWAVPR">    12</i>
   <i type="int" name="NBANDS">   161</i>
   <i type="int" name="NBANDSLOW">    -1</i>
   <i type="int" name="NBANDSHIGH">    -1</i>
   <i name="NELECT">    256.00000000</i>
   <i type="int" name="TURBO">     0</i>
   <i type="int" name="IRESTART">     0</i>
   <i type="int" name="NREBOOT">     0</i>
   <i type="int" name="NMIN">     0</i>
   <i name="EREF">      0.00000000</i>
   <separator name="electronic smearing" >
    <i type="int" name="ISMEAR">     0</i>
    <i name="SIGMA">      0.05000000</i>
    <i name="KSPACING">      0.50000000</i>
    <i type="logical" name="KGAMMA"> T  </i>
    <i type="logical" name="KBLOWUP"> T  </i>
   </separator>
   <separator name="electronic projectors" >
    <i type="logical" name="LREAL"> T  </i>
    <v name="ROPT">     -0.00025000</v>
    <i type="int" name="LMAXPAW">  -100</i>
    <i type="int" name="LMAXMIX">     2</i>
    <i type="logical" name="NLSPLINE"> F  </i>
   </separator>
   <separator name="electronic startup" >
    <i type="int" name="ISTART">     0</i>
    <i type="int" name="ICHARG">     2</i>
    <i type="int" name="INIWAV">     1</i>
   </separator>
   <separator name="electronic spin" >
    <i type="int" name="ISPIN">     1</i>
    <i type="logical" name="LNONCOLLINEAR"> F  </i>
    <v name="MAGMOM">      1.00000000      1.00000000      1.00000000      1.00000000      1.00000000      1.00000000      1.00000000      1.00000000      1.00000000      1.00000000      1.00000000      1.00000000      1.00000000      1.00000000      1.00000000      1.00000000      1.00000000      1.00000000      1.00000000      1.00000000
      1.00000000      1.00000000      1.00000000      1.00000000      1.00000000      1.00000000      1.00000000      1.00000000      1.00000000      1.00000000      1.00000000      1.00000000      1.00000000      1.00000000      1.00000000      1.00000000      1.00000000      1.00000000      1.00000000      1.00000000
      1.00000000      1.00000000      1.00000000      1.00000000      1.00000000      1.00000000      1.00000000      1.00000000      1.00000000      1.00000000      1.00000000      1.00000000      1.00000000      1.00000000      1.00000000      1.00000000      1.00000000      1.00000000      1.00000000      1.00000000
      1.00000000      1.00000000      1.00000000      1.00000000</v>
    <i name="NUPDOWN">     -1.00000000</i>
    <i type="logical" name="LSORBIT"> F  </i>
    <v name="SAXIS">      0.00000000      0.00000000      1.00000000</v>
    <i type="logical" name="LSPIRAL"> F  </i>
    <v name="QSPIRAL">      0.00000000      0.00000000      0.00000000</v>
    <i type="logical" name="LZEROZ"> F  </i>
   </separator>
   <separator name="electronic exchange-correlation" >
    <i type="logical" name="LASPH"> F  </i>
    <i type="logical" name="LMETAGGA"> F  </i>
   </separator>
   <separator name="electronic convergence" >
    <i type="int" name="NELM">    60</i>
    <i type="int" name="NELMDL">    -5</i>
    <i type="int" name="NELMIN">     5</i>
    <i name="ENINI">    400.00000000</i>
    <separator name="electronic convergence detail" >
     <i type="logical" name="LDIAG"> T  </i>
     <i type="logical" name="LSUBROT"> F  </i>
     <i name="WEIMIN">      0.00100000</i>
     <i name="EBREAK">      0.00000002</i>
     <i name="DEPER">      0.30000000</i>
     <i type="int" name="NRMM">     4</i>
     <i name="TIME">      0.40000000</i>
    </separator>
   </separator>
   <separator name="electronic mixer" >
    <i name="AMIX">      0.40000000</i>
    <i name="BMIX">      1.00000000</i>
    <i name="AMIN">      0.10000000</i>
    <i name="AMIX_MAG">      1.60000000</i>
    <i name="BMIX_MAG">      1.00000000</i>
    <separator name="electronic mixer details" >
     <i type="int" name="IMIX">     4</i>
     <i type="logical" name="MIXFIRST"> F  </i>
     <i type="int" name="MAXMIX">   -45</i>
     <i name="WC">    100.00000000</i>
     <i type="int" name="INIMIX">     1</i>
     <i type="int" name="MIXPRE">     1</i>
     <i type="int" name="MREMOVE">     5</i>
    </separator>
   </separator>
   <separator name="electronic dipolcorrection" >
    <i type="logical" name="LDIPOL"> F  </i>
    <i type="logical" name="LMONO"> F  </i>
    <i type="int" name="IDIPOL">     0</i>
    <i name="EPSILON">      1.00000000</i>
    <v name="DIPOL">   -100.00000000   -100.00000000   -100.00000000</v>
    <i name="EFIELD">      0.00000000</i>
   </separator>
  </separator>
  <separator name="grids" >
   <i type="int" name="NGX">    72</i>
   <i type="int" name="NGY">    72</i>
   <i type="int" name="NGZ">    72</i>
   <i type="int" name="NGXF">   144</i>
   <i type="int" name="NGYF">   144</i>
   <i type="int" name="NGZF">   144</i>
   <i type="logical" name="ADDGRID"> F  </i>
  </separator>
  <separator name="ionic" >
   <i type="int" name="NSW">   100</i>
   <i type="int" name="IBRION">     0</i>
   <i type="int" name="MDALGO">     2</i>
   <i type="int" name="ISIF">     2</i>
   <i name="PSTRESS">      0.00000000</i>
   <i name="EDIFFG">      0.00010000</i>
   <i type="int" name="NFREE">     0</i>
   <i name="POTIM">      1.00000000</i>
   <i name="SMASS">      0.03194312</i>
   <i name="SCALEE">      1.00000000</i>
  </separator>
  <separator name="ionic md" >
   <i name="TEBEG">    300.00000000</i>
   <i name="TEEND">    300.00000000</i>
   <i type="int" name="NBLOCK">     1</i>
   <i type="int" name="KBLOCK">   100</i>
   <i type="int" name="NPACO">   256</i>
   <i name="APACO">     10.00000000</i>
  </separator>
  <separator name="symmetry" >
   <i type="int" name="ISYM">     0</i>
   <i name="SYMPREC">      0.00001000</i>
  </separator>
  <separator name="dos" >
   <i type="int" name="LORBIT">     0</i>
   <v name="RWIGS">     -1.00000000</v>
   <i type="int" name="NEDOS">   301</i>
   <i name="EMIN">     10.00000000</i>
   <i name="EMAX">    -10.00000000</i>
   <i name="EFERMI">      0.00000000</i>
  </separator>
  <separator name="writing" >
   <i type="int" name="NWRITE">     2</i>
   <i type="logical" name="LWAVE"> F  </i>
   <i type="logical" name="LDOWNSAMPLE"> F  </i>
   <i type="logical" name="LCHARG"> F  </i>
   <i type="logical" name="LPARD"> F  </i>
   <i type="logical" name="LVTOT"> F  </i>
   <i type="logical" name="LVHAR"> F  </i>
   <i type="logical" name="LELF"> F  </i>
   <i type="logical" name="LOPTICS"> F  </i>
   <v name="STM">      0.00000000      0.00000000      0.00000000      0.00000000      0.00000000      0.00000000      0.00000000</v>
  </separator>
  <separator name="performance" >
   <i type="int" name="NPAR">     1</i>
   <i type="int" name="NSIM">    16</i>
   <i type="int" name="NBLK">    -1</i>
   <i type="logical" name="LPLANE"> T  </i>
   <i type="logical" name="LSCALAPACK"> T  </i>
   <i type="logical" name="LSCAAWARE"> F  </i>
   <i type="logical" name="LSCALU"> F  </i>
   <i type="logical" name="LASYNC"> F  </i>
   <i type="logical" name="LORBITALREAL"> F  </i>
  </separator>
  <separator name="miscellaneous" >
   <i type="int" name="IDIOT">     3</i>
   <i type="int" name="PHON_NSTRUCT">    -1</i>
   <i type="logical" name="LMUSIC"> F  </i>
   <v name="POMASS">     28.08500000</v>
   <v name="DARWINR">      0.00000000</v>
   <v name="DARWINV">      1.00000000</v>
   <i type="logical" name="LCORR"> T  </i>
  </separator>
  <i type="logical" name="GGA_COMPAT"> T  </i>
  <i type="logical" name="LBERRY"> F  </i>
  <i type="int" name="ICORELEVEL">     0</i>
  <i type="logical" name="LDAU"> F  </i>
  <i type="int" name="I_CONSTRAINED_M">     0</i>
  <separator name="electronic exchange-correlation" >
   <i type="string" name="GGA">PE</i>
   <i type="int" name="VOSKOWN">     0</i>
   <i type="logical" name="LHFCALC"> F  </i>
   <i type="string" name="PRECFOCK"></i>
   <i type="logical" name="LSYMGRAD"> F  </i>
   <i type="logical" name="LHFONE"> F  </i>
   <i type="logical" name="LRHFCALC"> F  </i>
   <i type="logical" name="LTHOMAS"> F  </i>
   <i type="logical" name="LMODELHF"> F  </i>
   <i type="logical" name="LFOCKACE"> F  </i>
   <i name="ENCUT4O">     -1.00000000</i>
   <i type="int" name="EXXOEP">     0</i>
   <i type="int" name="FOURORBIT">     0</i>
   <i name="AEXX">      0.00000000</i>
   <i name="HFALPHA">      0.00000000</i>
   <i name="MCALPHA">      0.00000000</i>
   <i name="ALDAX">      1.00000000</i>
   <i name="AGGAX">      1.00000000</i>
   <i name="ALDAC">      1.00000000</i>
   <i name="AGGAC">      1.00000000</i>
   <i type="int" name="NKREDX">     1</i>
   <i type="int" name="NKREDY">     1</i>
   <i type="int" name="NKREDZ">     1</i>
   <i type="logical" name="SHIFTRED"> F  </i>
   <i type="logical" name="ODDONLY"> F  </i>
   <i type="logical" name="EVENONLY"> F  </i>
   <i type="int" name="LMAXFOCK">     0</i>
   <i type="int" name="NMAXFOCKAE">     0</i>
   <i type="logical" name="LFOCKAEDFT"> F  </i>
   <i name="HFSCREEN">      0.00000000</i>
   <i name="HFSCREENC">      0.00000000</i>
   <i type="int" name="NBANDSGWLOW">     0</i>
  </separator>
  <separator name="vdW DFT" >
   <i type="logical" name="LUSE_VDW"> F  </i>
   <i name="Zab_VDW">     -0.84910000</i>
   <i name="PARAM1">      0.12340000</i>
   <i name="PARAM2">      1.00000000</i>
   <i name="PARAM3">      0.00000000</i>
  </separator>
  <separator name="model GW" >
   <i type="int" name="MODEL_GW">     0</i>
   <i name="MODEL_EPS0">     12.26648785</i>
   <i name="MODEL_ALPHA">      1.00000000</i>
  </separator>
  <separator name="linear response parameters" >
   <i type="logical" name="LEPSILON"> F  </i>
   <i type="logical" name="LRPA"> F  </i>
   <i type="logical" name="LNABLA"> F  </i>
   <i type="logical" name="LVEL"> F  </i>
   <i name="CSHIFT">      0.10000000</i>
   <i name="OMEGAMAX">     -1.00000000</i>
   <i name="DEG_THRESHOLD">      0.00200000</i>
   <i name="RTIME">     -0.10000000</i>
   <i name="WPLASMAI">      0.00000000</i>
   <v name="DFIELD">      0.00000000      0.00000000      0.00000000</v>
   <v name="WPLASMA">      0.00000000      0.00000000      0.00000000      0.00000000      0.00000000      0.00000000      0.00000000      0.00000000      0.00000000</v>
  </separator>
  <separator name="orbital magnetization" >
   <i type="logical" name="NUCIND"> F  </i>
   <v name="MAGPOS">      0.00000000      0.00000000      0.00000000</v>
   <i type="logical" name="LNICSALL"> T  </i>
   <i type="logical" name="ORBITALMAG"> F  </i>
   <i type="logical" name="LMAGBLOCH"> F  </i>
   <i type="logical" name="LCHIMAG"> F  </i>
   <i type="logical" name="LGAUGE"> T  </i>
   <i type="int" name="MAGATOM">     0</i>
   <v name="MAGDIPOL">      0.00000000      0.00000000      0.00000000</v>
   <v name="AVECCONST">      0.00000000      0.00000000      0.00000000</v>
  </separator>
  <separator name="response functions" >
   <i type="logical" name="LFINITE_TEMPERATURE"> F  </i>
   <i type="logical" name="LADDER"> F  </i>
   <i type="logical" name="LRPAFORCE"> F  </i>
   <i type="logical" name="LFXC"> F  </i>
   <i type="logical" name="LHARTREE"> T  </i>
   <i type="int" name="IBSE">     0</i>
   <v type="int" name="KPOINT">    -1     0     0     0</v>
   <i type="logical" name="LTCTC"> F  </i>
   <i type="logical" name="LTCTE"> F  </i>
   <i type="logical" name="LTETE"> F  </i>
   <i type="logical" name="LTRIPLET"> F  </i>
   <i type="logical" name="LFXCEPS"> F  </i>
   <i type="logical" name="LFXHEG"> F  </i>
   <i type="int" name="NATURALO">     2</i>
   <i type="logical" name="LHOLEGF"> F  </i>
   <i type="logical" name="L2ORDER"> F  </i>
   <i type="logical" name="LDMP1"> F  </i>
   <i type="logical" name="LMP2LT"> F  </i>
   <i type="logical" name="LSMP2LT"> F  </i>
   <i type="logical" name="LGWLF"> F  </i>
   <i name="ENCUTGW">     -2.00000000</i>
   <i name="ENCUTGWSOFT">     -2.00000000</i>
   <i name="ENCUTLF">     -1.00000000</i>
   <i type="logical" name="LESF_SPLINES"> F  </i>
   <i type="int" name="LMAXMP2">    -1</i>
   <i name="SCISSOR">      0.00000000</i>
   <i type="int" name="NOMEGA">     0</i>
   <i type="int" name="NOMEGAR">     0</i>
   <i type="int" name="NBANDSGW">    -1</i>
   <i type="int" name="NBANDSO">    -1</i>
   <i type="int" name="NBANDSV">    -1</i>
   <i type="int" name="NELMGW">     1</i>
   <i type="int" name="NELMHF">     1</i>
   <i type="int" name="DIM">     3</i>
   <i type="int" name="IESPILON">     4</i>
   <i type="int" name="ANTIRES">     0</i>
   <i name="OMEGAMAX">    -30.00000000</i>
   <i name="OMEGAMIN">    -30.00000000</i>
   <i name="OMEGATL">   -200.00000000</i>
   <i type="int" name="OMEGAGRID">     0</i>
   <i name="CSHIFT">     -0.10000000</i>
   <i type="logical" name="LSELFENERGY"> F  </i>
   <i type="logical" name="LSPECTRAL"> F  </i>
   <i type="logical" name="LSPECTRALGW"> F  </i>
   <i type="logical" name="LSINGLES"> F  </i>
   <i type="logical" name="LFERMIGW"> F  </i>
   <i type="logical" name="ODDONLYGW"> F  </i>
   <i type="logical" name="EVENONLYGW"> F  </i>
   <i type="int" name="NKREDLFX">     1</i>
   <i type="int" name="NKREDLFY">     1</i>
   <i type="int" name="NKREDLFZ">     1</i>
   <i type="int" name="MAXMEM">  2800</i>
   <i type="int" name="TELESCOPE">     0</i>
   <i type="int" name="NTAUPAR">    -1</i>
   <i type="int" name="NOMEGAPAR">    -1</i>
   <i name="DAMP_NEWTON">      0.80000001</i>
   <i name="LAMBDA">      1.00000000</i>
  </separator>
  <separator name="External order field" >
   <i name="OFIELD_KAPPA">      0.00000000</i>
   <v name="OFIELD_K">      0.00000000      0.00000000      0.00000000</v>
   <i name="OFIELD_Q6_NEAR">      0.00000000</i>
   <i name="OFIELD_Q6_FAR">      0.00000000</i>
   <i name="OFIELD_A">      0.00000000</i>
  </separator>
  <separator name="optional k-points parameters" >
   <i type="int" name="KPOINTS_OPT_MODE">     1</i>
   <i type="logical" name="LKPOINTS_OPT"> F  </i>
  </separator>
 </parameters>
 <atominfo>
  <atoms>      64 </atoms>
  <types>       1 </types>
  <array name="atoms" >
   <dimension dim="1">ion</dimension>
   <field type="string">element</field>
   <field type="int">atomtype</field>
   <set>
    <rc><c>Si</c><c>   1</c></rc>
    <rc><c>Si</c><c>   1</c></rc>
    <rc><c>Si</c><c>   1</c></rc>
    <rc><c>Si</c><c>   1</c></rc>
    <rc><c>Si</c><c>   1</c></rc>
    <rc><c>Si</c><c>   1</c></rc>
    <rc><c>Si</c><c>   1</c></rc>
    <rc><c>Si</c><c>   1</c></rc>
    <rc><c>Si</c><c>   1</c></rc>
    <rc><c>Si</c><c>   1</c></rc>
    <rc><c>Si</c><c>   1</c></rc>
    <rc><c>Si</c><c>   1</c></rc>
    <rc><c>Si</c><c>   1</c></rc>
    <rc><c>Si</c><c>   1</c></rc>
    <rc><c>Si</c><c>   1</c></rc>
    <rc><c>Si</c><c>   1</c></rc>
    <rc><c>Si</c><c>   1</c></rc>
    <rc><c>Si</c><c>   1</c></rc>
    <rc><c>Si</c><c>   1</c></rc>
    <rc><c>Si</c><c>   1</c></rc>
    <rc><c>Si</c><c>   1</c></rc>
    <rc><c>Si</c><c>   1</c></rc>
    <rc><c>Si</c><c>   1</c></rc>
    <rc><c>Si</c><c>   1</c></rc>
    <rc><c>Si</c><c>   1</c></rc>
    <rc><c>Si</c><c>   1</c></rc>
    <rc><c>Si</c><c>   1</c></rc>
    <rc><c>Si</c><c>   1</c></rc>
    <rc><c>Si</c><c>   1</c></rc>
    <rc><c>Si</c><c>   1</c></rc>
    <rc><c>Si</c><c>   1</c></rc>
    <rc><c>Si</c><c>   1</c></rc>
    <rc><c>Si</c><c>   1</c></rc>
    <rc><c>Si</c><c>   1</c></rc>
    <rc><c>Si</c><c>   1</c></rc>
    <rc><c>Si</c><c>   1</c></rc>
    <rc><c>Si</c><c>   1</c></rc>
    <rc><c>Si</c><c>   1</c></rc>
    <rc><c>Si</c><c>   1</c></rc>
    <rc><c>Si</c><c>   1</c></rc>
    <rc><c>Si</c><c>   1</c></rc>
    <rc><c>Si</c><c>   1</c></rc>
    <rc><c>Si</c><c>   1</c></rc>
    <rc><c>Si</c><c>   1</c></rc>
    <rc><c>Si</c><c>   1</c></rc>
    <rc><c>Si</c><c>   1</c></rc>
    <rc><c>Si</c><c>   1</c></rc>
    <rc><c>Si</c><c>   1</c></rc>
    <rc><c>Si</c><c>   1</c></rc>
    <rc><c>Si</c><c>   1</c></rc>
    <rc><c>Si</c><c>   1</c></rc>
    <rc><c>Si</c><c>   1</c></rc>
    <rc><c>Si</c><c>   1</c></rc>
    <rc><c>Si</c><c>   1</c></rc>
    <rc><c>Si</c><c>   1</c></rc>
    <rc><c>Si</c><c>   1</c></rc>
    <rc><c>Si</c><c>   1</c></rc>
    <rc><c>Si</c><c>   1</c></rc>
    <rc><c>Si</c><c>   1</c></rc>
    <rc><c>Si</c><c>   1</c></rc>
    <rc><c>Si</c><c>   1</c></rc>
    <rc><c>Si</c><c>   1</c></rc>
    <rc><c>Si</c><c>   1</c></rc>
    <rc><c>Si</c><c>   1</c></rc>
   </set>
  </array>
  <array name="atomtypes" >
   <dimension dim="1">type</dimension>
   <field type="int">atomspertype</field>
   <field type="string">element</field>
   <field>mass</field>
   <field>valence</field>
   <field type="string">pseudopotential</field>
   <set>
    <rc><c>  64</c><c>Si</c><c>     28.08500000</c><c>      4.00000000</c><c>  PAW_PBE Si 05Jan2001                  </c></rc>
   </set>
  </array>
 </atominfo>
 <structure name="initialpos" >
  <crystal>
   <varray name="basis" >
    <v>      10.93745600       0.00000000       0.00000000 </v>
    <v>       0.00000000      10.93745600       0.00000000 </v>
    <v>       0.00000000       0.00000000      10.93745600 </v>
   </varray>
   <i name="volume">   1308.42537116 </i>
   <varray name="rec_basis" >
    <v>       0.09142894       0.00000000       0.00000000 </v>
    <v>       0.00000000       0.09142894       0.00000000 </v>
    <v>       0.00000000       0.00000000       0.09142894 </v>
   </varray>
  </crystal>
  <varray name="positions" >
   <v>       0.62500000       0.37500000       0.37500000 </v>
   <v>       0.87500000       0.62500000       0.37500000 </v>
   <v>       0.62500000       0.12500000       0.62500000 </v>
   <v>       0.87500000       0.37500000       0.62500000 </v>
   <v>       0.87500000       0.12500000       0.87500000 </v>
   <v>       0.12500000       0.62500000       0.12500000 </v>
   <v>       0.37500000       0.87500000       0.12500000 </v>
   <v>       0.12500000       0.37500000       0.37500000 </v>
   <v>       0.62500000       0.12500000       0.12500000 </v>
   <v>       0.87500000       0.37500000       0.12500000 </v>
   <v>       0.87500000       0.12500000       0.37500000 </v>
   <v>       0.12500000       0.12500000       0.12500000 </v>
   <v>       0.37500000       0.37500000       0.12500000 </v>
   <v>       0.62500000       0.62500000       0.12500000 </v>
   <v>       0.87500000       0.87500000       0.12500000 </v>
   <v>       0.37500000       0.12500000       0.37500000 </v>
   <v>       0.87500000       0.62500000       0.87500000 </v>
   <v>       0.12500000       0.87500000       0.37500000 </v>
   <v>       0.12500000       0.62500000       0.62500000 </v>
   <v>       0.37500000       0.87500000       0.62500000 </v>
   <v>       0.12500000       0.37500000       0.87500000 </v>
   <v>       0.37500000       0.62500000       0.87500000 </v>
   <v>       0.62500000       0.87500000       0.87500000 </v>
   <v>       0.12500000       0.87500000       0.87500000 </v>
   <v>       0.37500000       0.62500000       0.37500000 </v>
   <v>       0.62500000       0.87500000       0.37500000 </v>
   <v>       0.12500000       0.12500000       0.62500000 </v>
   <v>       0.37500000       0.37500000       0.62500000 </v>
   <v>       0.62500000       0.62500000       0.62500000 </v>
   <v>       0.87500000       0.87500000       0.62500000 </v>
   <v>       0.37500000       0.12500000       0.87500000 </v>
   <v>       0.62500000       0.37500000       0.87500000 </v>
   <v>       0.50000000       0.50000000       0.00000000 </v>
   <v>       0.75000000       0.75000000       0.00000000 </v>
   <v>       0.25000000       0.00000000       0.25000000 </v>
   <v>       0.50000000       0.25000000       0.25000000 </v>
   <v>       0.75000000       0.50000000       0.25000000 </v>
   <v>       0.00000000       0.75000000       0.25000000 </v>
   <v>       0.50000000       0.00000000       0.50000000 </v>
   <v>       0.75000000       0.25000000       0.50000000 </v>
   <v>       0.00000000       0.00000000       0.00000000 </v>
   <v>       0.50000000       0.00000000       0.00000000 </v>
   <v>       0.75000000       0.25000000       0.00000000 </v>
   <v>       0.00000000       0.50000000       0.00000000 </v>
   <v>       0.75000000       0.00000000       0.25000000 </v>
   <v>       0.00000000       0.25000000       0.25000000 </v>
   <v>       0.00000000       0.00000000       0.50000000 </v>
   <v>       0.25000000       0.25000000       0.00000000 </v>
   <v>       0.75000000       0.75000000       0.50000000 </v>
   <v>       0.25000000       0.00000000       0.75000000 </v>
   <v>       0.50000000       0.25000000       0.75000000 </v>
   <v>       0.75000000       0.50000000       0.75000000 </v>
   <v>       0.00000000       0.75000000       0.75000000 </v>
   <v>       0.25000000       0.75000000       0.50000000 </v>
   <v>       0.25000000       0.50000000       0.75000000 </v>
   <v>       0.50000000       0.75000000       0.75000000 </v>
   <v>       0.00000000       0.50000000       0.50000000 </v>
   <v>       0.75000000       0.00000000       0.75000000 </v>
   <v>       0.00000000       0.25000000       0.75000000 </v>
   <v>       0.25000000       0.75000000       0.00000000 </v>
   <v>       0.25000000       0.50000000       0.25000000 </v>
   <v>       0.50000000       0.75000000       0.25000000 </v>
   <v>       0.25000000       0.25000000       0.50000000 </v>
   <v>       0.50000000       0.50000000       0.50000000 </v>
  </varray>
  <varray name="velocities" >
   <v>       0.00020918       0.00044666       0.00050985 </v>
   <v>       0.00019238       0.00016311       0.00015709 </v>
   <v>       0.00021362       0.00015627       0.00024651 </v>
   <v>       0.00046763      -0.00001611       0.00040629 </v>
   <v>       0.00042227      -0.00009910       0.00005433 </v>
   <v>      -0.00022479      -0.00042834      -0.00031538 </v>
   <v>      -0.00001842      -0.00000176      -0.00018892 </v>
   <v>      -0.00014528      -0.00004961       0.00003097 </v>
   <v>      -0.00029246      -0.00020019       0.00000942 </v>
   <v>      -0.00010217       0.00059257       0.00006398 </v>
   <v>       0.00009950       0.00030088       0.00029521 </v>
   <v>      -0.00045443      -0.00017532       0.00012259 </v>
   <v>       0.00026382       0.00005932      -0.00006051 </v>
   <v>      -0.00020663       0.00026134       0.00003819 </v>
   <v>      -0.00035755       0.00013036      -0.00004426 </v>
   <v>       0.00011660      -0.00005004       0.00002579 </v>
   <v>      -0.00033250      -0.00022091       0.00004416 </v>
   <v>      -0.00014976       0.00018990       0.00008927 </v>
   <v>      -0.00016405      -0.00009374       0.00002621 </v>
   <v>       0.00028548       0.00051427       0.00021421 </v>
   <v>       0.00003744      -0.00044557      -0.00049065 </v>
   <v>       0.00029821       0.00035845      -0.00018480 </v>
   <v>       0.00020050      -0.00011775       0.00016387 </v>
   <v>      -0.00004400      -0.00028166       0.00004521 </v>
   <v>      -0.00024722      -0.00032621       0.00028756 </v>
   <v>       0.00009326       0.00007148      -0.00031729 </v>
   <v>      -0.00004349      -0.00028821       0.00030458 </v>
   <v>       0.00009488      -0.00012036      -0.00062073 </v>
   <v>       0.00021023      -0.00077243       0.00011653 </v>
   <v>       0.00010071      -0.00013185       0.00021244 </v>
   <v>       0.00019528      -0.00022052      -0.00035429 </v>
   <v>       0.00001653      -0.00017954      -0.00013631 </v>
   <v>       0.00008486      -0.00059647      -0.00044066 </v>
   <v>       0.00006446      -0.00041775       0.00022615 </v>
   <v>       0.00014791      -0.00027805       0.00029168 </v>
   <v>      -0.00017572       0.00024058      -0.00026237 </v>
   <v>      -0.00015829       0.00036197      -0.00033991 </v>
   <v>      -0.00013623       0.00013860       0.00020642 </v>
   <v>       0.00033007      -0.00010024       0.00022903 </v>
   <v>       0.00015518      -0.00020852       0.00038402 </v>
   <v>      -0.00042906       0.00035789      -0.00040492 </v>
   <v>      -0.00006078      -0.00019467      -0.00024615 </v>
   <v>       0.00002087      -0.00000784       0.00028518 </v>
   <v>       0.00058394      -0.00039471      -0.00040834 </v>
   <v>      -0.00023400       0.00031002      -0.00003240 </v>
   <v>      -0.00027184      -0.00060472       0.00038216 </v>
   <v>      -0.00000478       0.00006411      -0.00002693 </v>
   <v>      -0.00013610       0.00002579      -0.00041731 </v>
   <v>      -0.00031920       0.00001406       0.00026238 </v>
   <v>       0.00006594       0.00009283      -0.00019808 </v>
   <v>       0.00014996      -0.00000163      -0.00057325 </v>
   <v>      -0.00066725       0.00011040       0.00009496 </v>
   <v>       0.00012573       0.00053108       0.00029424 </v>
   <v>      -0.00002894       0.00023407       0.00008719 </v>
   <v>       0.00001260      -0.00028628       0.00058692 </v>
   <v>      -0.00007504       0.00052723      -0.00036694 </v>
   <v>      -0.00005776       0.00025441       0.00012394 </v>
   <v>       0.00019559      -0.00017426      -0.00036653 </v>
   <v>       0.00015332      -0.00006180      -0.00023323 </v>
   <v>       0.00014998       0.00047408       0.00028436 </v>
   <v>      -0.00015287       0.00021179       0.00017493 </v>
   <v>       0.00009791      -0.00018610       0.00000626 </v>
   <v>      -0.00005916       0.00038878      -0.00033810 </v>
   <v>      -0.00010607       0.00014999      -0.00001579 </v>
  </varray>
 </structure>
 <calculation>
  <scstep>
   <time name="dav">    0.51    0.52</time>
   <time name="total">    0.57    0.58</time>
   <energy>
    <i name="alphaZ">    105.38177171 </i>
    <i name="ewald">  -7262.23807047 </i>
    <i name="hartreedc">   -362.34845067 </i>
    <i name="XCdc">   -597.92574618 </i>
    <i name="pawpsdc">   5639.92317535 </i>
    <i name="pawaedc">  -4513.95313856 </i>
    <i name="eentropy">     -0.01535102 </i>
    <i name="bandstr">    949.67870706 </i>
    <i name="atom">   6596.20775861 </i>
    <i name="e_fr_energy">    554.71065582 </i>
    <i name="e_wo_entrp">    554.72600685 </i>
    <i name="e_0_energy">    554.71833134 </i>
   </energy>
  </scstep>
  <scstep>
   <time name="dav">    0.60    0.60</time>
   <time name="total">    0.60    0.61</time>
   <energy>
    <i name="e_fr_energy">   -300.70131501 </i>
    <i name="e_wo_entrp">   -300.70131315 </i>
    <i name="e_0_energy">   -300.70131408 </i>
   </energy>
  </scstep>
  <scstep>
   <time name="dav">    0.79    0.79</time>
   <time name="total">    0.79    0.79</time>
   <energy>
    <i name="e_fr_energy">   -351.58776027 </i>
    <i name="e_wo_entrp">   -351.58776027 </i>
    <i name="e_0_energy">   -351.58776027 </i>
   </energy>
  </scstep>
  <scstep>
   <time name="dav">    0.60    0.60</time>
   <time name="total">    0.60    0.60</time>
   <energy>
    <i name="e_fr_energy">   -352.44902473 </i>
    <i name="e_wo_entrp">   -352.44902473 </i>
    <i name="e_0_energy">   -352.44902473 </i>
   </energy>
  </scstep>
  <scstep>
   <time name="dav">    0.60    0.61</time>
   <time name="total">    0.65    0.65</time>
   <energy>
    <i name="e_fr_energy">   -352.47242596 </i>
    <i name="e_wo_entrp">   -352.47242596 </i>
    <i name="e_0_energy">   -352.47242596 </i>
   </energy>
  </scstep>
  <scstep>
   <time name="dav">    0.59    0.59</time>
   <time name="total">    0.69    0.69</time>
   <energy>
    <i name="e_fr_energy">   -348.74089771 </i>
    <i name="e_wo_entrp">   -348.74089771 </i>
    <i name="e_0_energy">   -348.74089771 </i>
   </energy>
  </scstep>
  <scstep>
   <time name="dav">    0.60    0.60</time>
   <time name="total">    0.72    0.73</time>
   <energy>
    <i name="e_fr_energy">   -347.02708416 </i>
    <i name="e_wo_entrp">   -347.02708416 </i>
    <i name="e_0_energy">   -347.02708416 </i>
   </energy>
  </scstep>
  <scstep>
   <time name="dav">    0.56    0.56</time>
   <time name="total">    0.65    0.65</time>
   <energy>
    <i name="e_fr_energy">   -347.05290226 </i>
    <i name="e_wo_entrp">   -347.05290226 </i>
    <i name="e_0_energy">   -347.05290226 </i>
   </energy>
  </scstep>
  <scstep>
   <time name="dav">    0.61    0.61</time>
   <time name="total">    0.70    0.70</time>
   <energy>
    <i name="e_fr_energy">   -347.05936803 </i>
    <i name="e_wo_entrp">   -347.05936803 </i>
    <i name="e_0_energy">   -347.05936803 </i>
   </energy>
  </scstep>
  <scstep>
   <time name="dav">    0.57    0.57</time>
   <time name="total">    0.66    0.66</time>
   <energy>
    <i name="e_fr_energy">   -347.06152016 </i>
    <i name="e_wo_entrp">   -347.06152016 </i>
    <i name="e_0_energy">   -347.06152016 </i>
   </energy>
  </scstep>
  <scstep>
   <time name="dav">    0.61    0.61</time>
   <time name="total">    0.70    0.70</time>
   <energy>
    <i name="e_fr_energy">   -347.06156245 </i>
    <i name="e_wo_entrp">   -347.06156245 </i>
    <i name="e_0_energy">   -347.06156245 </i>
   </energy>
  </scstep>
  <scstep>
   <time name="dav">    0.42    0.42</time>
   <time name="total">    0.51    0.51</time>
   <energy>
    <i name="e_fr_energy">   -347.06157780 </i>
    <i name="e_wo_entrp">   -347.06157780 </i>
    <i name="e_0_energy">   -347.06157780 </i>
   </energy>
  </scstep>
  <scstep>
   <time name="dav">    0.42    0.42</time>
   <time name="total">    0.47    0.47</time>
   <energy>
    <i name="alphaZ">    105.38177171 </i>
    <i name="ewald">  -7262.23807047 </i>
    <i name="hartreedc">   -486.03530485 </i>
    <i name="XCdc">   -577.82317064 </i>
    <i name="pawpsdc">  26502.60366109 </i>
    <i name="pawaedc"> -25383.22163706 </i>
    <i name="eentropy">     -0.00000000 </i>
    <i name="bandstr">    158.06341872 </i>
    <i name="atom">   6596.20775861 </i>
    <i name="e_fr_energy">   -347.06157289 </i>
    <i name="e_wo_entrp">   -347.06157289 </i>
    <i name="e_0_energy">   -347.06157289 </i>
   </energy>
  </scstep>
  <structure>
   <crystal>
    <varray name="basis" >
     <v>      10.93745600       0.00000000       0.00000000 </v>
     <v>       0.00000000      10.93745600       0.00000000 </v>
     <v>       0.00000000       0.00000000      10.93745600 </v>
    </varray>
    <i name="volume">   1308.42537116 </i>
    <varray name="rec_basis" >
     <v>       0.09142894       0.00000000       0.00000000 </v>
     <v>       0.00000000       0.09142894       0.00000000 </v>
     <v>       0.00000000       0.00000000       0.09142894 </v>
    </varray>
   </crystal>
   <varray name="positions" >
    <v>       0.62500000       0.37500000       0.37500000 </v>
    <v>       0.87500000       0.62500000       0.37500000 </v>
    <v>       0.62500000       0.12500000       0.62500000 </v>
    <v>       0.87500000       0.37500000       0.62500000 </v>
    <v>       0.87500000       0.12500000       0.87500000 </v>
    <v>       0.12500000       0.62500000       0.12500000 </v>
    <v>       0.37500000       0.87500000       0.12500000 </v>
    <v>       0.12500000       0.37500000       0.37500000 </v>
    <v>       0.62500000       0.12500000       0.12500000 </v>
    <v>       0.87500000       0.37500000       0.12500000 </v>
    <v>       0.87500000       0.12500000       0.37500000 </v>
    <v>       0.12500000       0.12500000       0.12500000 </v>
    <v>       0.37500000       0.37500000       0.12500000 </v>
    <v>       0.62500000       0.62500000       0.12500000 </v>
    <v>       0.87500000       0.87500000       0.12500000 </v>
    <v>       0.37500000       0.12500000       0.37500000 </v>
    <v>       0.87500000       0.62500000       0.87500000 </v>
    <v>       0.12500000       0.87500000       0.37500000 </v>
    <v>       0.12500000       0.62500000       0.62500000 </v>
    <v>       0.37500000       0.87500000       0.62500000 </v>
    <v>       0.12500000       0.37500000       0.87500000 </v>
    <v>       0.37500000       0.62500000       0.87500000 </v>
    <v>       0.62500000       0.87500000       0.87500000 </v>
    <v>       0.12500000       0.87500000       0.87500000 </v>
    <v>       0.37500000       0.62500000       0.37500000 </v>
    <v>       0.62500000       0.87500000       0.37500000 </v>
    <v>       0.12500000       0.12500000       0.62500000 </v>
    <v>       0.37500000       0.37500000       0.62500000 </v>
    <v>       0.62500000       0.62500000       0.62500000 </v>
    <v>       0.87500000       0.87500000       0.62500000 </v>
    <v>       0.37500000       0.12500000       0.87500000 </v>
    <v>       0.62500000       0.37500000       0.87500000 </v>
    <v>       0.50000000       0.50000000       0.00000000 </v>
    <v>       0.75000000       0.75000000       0.00000000 </v>
    <v>       0.25000000       0.00000000       0.25000000 </v>
    <v>       0.50000000       0.25000000       0.25000000 </v>
    <v>       0.75000000       0.50000000       0.25000000 </v>
    <v>       0.00000000       0.75000000       0.25000000 </v>
    <v>       0.50000000       0.00000000       0.50000000 </v>
    <v>       0.75000000       0.25000000       0.50000000 </v>
    <v>       0.00000000       0.00000000       0.00000000 </v>
    <v>       0.50000000       0.00000000       0.00000000 </v>
    <v>       0.75000000       0.25000000       0.00000000 </v>
    <v>       0.00000000       0.50000000       0.00000000 </v>
    <v>       0.75000000       0.00000000       0.25000000 </v>
    <v>       0.00000000       0.25000000       0.25000000 </v>
    <v>       0.00000000       0.00000000       0.50000000 </v>
    <v>       0.25000000       0.25000000       0.00000000 </v>
    <v>       0.75000000       0.75000000       0.50000000 </v>
    <v>       0.25000000       0.00000000       0.75000000 </v>
    <v>       0.50000000       0.25000000       0.75000000 </v>
    <v>       0.75000000       0.50000000       0.75000000 </v>
    <v>       0.00000000       0.75000000       0.75000000 </v>
    <v>       0.25000000       0.75000000       0.50000000 </v>
    <v>       0.25000000       0.50000000       0.75000000 </v>
    <v>       0.50000000       0.75000000       0.75000000 </v>
    <v>       0.00000000       0.50000000       0.50000000 </v>
    <v>       0.75000000       0.00000000       0.75000000 </v>
    <v>       0.00000000       0.25000000       0.75000000 </v>
    <v>       0.25000000       0.75000000       0.00000000 </v>
    <v>       0.25000000       0.50000000       0.25000000 </v>
    <v>       0.50000000       0.75000000       0.25000000 </v>
    <v>       0.25000000       0.25000000       0.50000000 </v>
    <v>       0.50000000       0.50000000       0.50000000 </v>
   </varray>
  </structure>
  <varray name="forces" >
   <v>       0.00000252       0.00000033      -0.00000008 </v>
   <v>       0.00000144       0.00000490       0.00000117 </v>
   <v>       0.00000397      -0.00000482       0.00000025 </v>
   <v>      -0.00000082       0.00000090      -0.00000042 </v>
   <v>      -0.00000034      -0.00000584       0.00000206 </v>
   <v>      -0.00000402       0.00000072       0.00000247 </v>
   <v>      -0.00000016       0.00000023      -0.00000131 </v>
   <v>      -0.00000170       0.00000103       0.00000054 </v>
   <v>       0.00000467      -0.00000313      -0.00000114 </v>
   <v>       0.00000030       0.00000369      -0.00000280 </v>
   <v>      -0.00000070      -0.00000211      -0.00000362 </v>
   <v>      -0.00000431      -0.00000591      -0.00000243 </v>
   <v>      -0.00000392       0.00000188      -0.00000017 </v>
   <v>       0.00000286       0.00000538      -0.00000208 </v>
   <v>      -0.00000231       0.00000141       0.00000009 </v>
   <v>      -0.00000187      -0.00000131      -0.00000015 </v>
   <v>       0.00000154       0.00000522       0.00000182 </v>
   <v>      -0.00000357       0.00000036      -0.00000223 </v>
   <v>      -0.00000668       0.00000354       0.00000164 </v>
   <v>      -0.00000124       0.00000107      -0.00000169 </v>
   <v>      -0.00000457       0.00000111       0.00000258 </v>
   <v>      -0.00000065       0.00000249       0.00000232 </v>
   <v>       0.00000516       0.00000214       0.00000389 </v>
   <v>      -0.00000554      -0.00000058       0.00000116 </v>
   <v>      -0.00000116       0.00000359      -0.00000129 </v>
   <v>       0.00000199       0.00000093      -0.00000106 </v>
   <v>      -0.00000283      -0.00000214       0.00000230 </v>
   <v>      -0.00000136      -0.00000050       0.00000012 </v>
   <v>       0.00000522       0.00000564      -0.00000067 </v>
   <v>       0.00000315      -0.00000166       0.00000113 </v>
   <v>      -0.00000210      -0.00000582       0.00000249 </v>
   <v>       0.00000217       0.00000169       0.00000245 </v>
   <v>       0.00000299       0.00000263       0.00000258 </v>
   <v>       0.00000278       0.00000041       0.00000290 </v>
   <v>      -0.00000147      -0.00000302      -0.00000162 </v>
   <v>       0.00000104      -0.00000131      -0.00000130 </v>
   <v>       0.00000251       0.00000332      -0.00000383 </v>
   <v>       0.00000132       0.00000364      -0.00000503 </v>
   <v>       0.00000224      -0.00000541      -0.00000366 </v>
   <v>       0.00000471      -0.00000337      -0.00000117 </v>
   <v>      -0.00000017      -0.00000389      -0.00000097 </v>
   <v>      -0.00000021      -0.00000372      -0.00000065 </v>
   <v>       0.00000161      -0.00000312       0.00000172 </v>
   <v>      -0.00000092       0.00000445       0.00000018 </v>
   <v>       0.00000340      -0.00000452      -0.00000282 </v>
   <v>       0.00000112      -0.00000295       0.00000246 </v>
   <v>      -0.00000055      -0.00000381      -0.00000041 </v>
   <v>      -0.00000379      -0.00000242      -0.00000188 </v>
   <v>       0.00000289       0.00000361       0.00000097 </v>
   <v>      -0.00000661      -0.00000226       0.00000072 </v>
   <v>      -0.00000015      -0.00000441       0.00000047 </v>
   <v>       0.00000373       0.00000314      -0.00000027 </v>
   <v>      -0.00000214       0.00000275       0.00000188 </v>
   <v>      -0.00000057      -0.00000160      -0.00000210 </v>
   <v>      -0.00000166       0.00000091       0.00000103 </v>
   <v>       0.00000053       0.00000117       0.00000049 </v>
   <v>      -0.00000005       0.00000026      -0.00000029 </v>
   <v>       0.00000540      -0.00000371      -0.00000066 </v>
   <v>       0.00000058      -0.00000191      -0.00000262 </v>
   <v>      -0.00000347       0.00000703       0.00000121 </v>
   <v>      -0.00000556       0.00000381       0.00000036 </v>
   <v>       0.00000309       0.00000193      -0.00000011 </v>
   <v>      -0.00000363       0.00000037      -0.00000252 </v>
   <v>       0.00000244       0.00000222      -0.00000099 </v>
  </varray>
  <varray name="stress" >
   <v>      -0.42493647      -0.00001799      -0.00005855 </v>
   <v>      -0.00001801      -0.42495002       0.00002526 </v>
   <v>      -0.00005858       0.00002525      -0.42493070 </v>
  </varray>
  <energy>
   <i name="e_fr_energy">   -347.06157289 </i>
   <i name="e_wo_entrp">   -347.06157289 </i>
   <i name="e_0_energy">   -347.06157289 </i>
   <i name="kinetic">      2.44302883 </i>
   <i name="lattice kinetic">      0.00000000 </i>
   <i name="nosepot">      0.00000000 </i>
   <i name="nosekinetic">      0.00000000 </i>
   <i name="total">   -344.61854407 </i>
  </energy>
  <time name="totalsc">    9.90   10.13</time>
 </calculation>
 <calculation>
  <scstep>
   <time name="dav">    0.59    0.59</time>
   <time name="total">    0.68    0.68</time>
   <energy>
    <i name="alphaZ">    105.38177171 </i>
    <i name="ewald">  -7262.20327724 </i>
    <i name="hartreedc">   -486.04940653 </i>
    <i name="XCdc">   -577.82345406 </i>
    <i name="pawpsdc">  26503.32283154 </i>
    <i name="pawaedc"> -25383.94055039 </i>
    <i name="eentropy">     -0.00000000 </i>
    <i name="bandstr">    158.05668763 </i>
    <i name="atom">   6596.20775861 </i>
    <i name="e_fr_energy">   -347.04763872 </i>
    <i name="e_wo_entrp">   -347.04763872 </i>
    <i name="e_0_energy">   -347.04763872 </i>
   </energy>
  </scstep>
  <scstep>
   <time name="dav">    1.18    1.19</time>
   <time name="total">    1.27    1.28</time>
   <energy>
    <i name="e_fr_energy">   -347.04998385 </i>
    <i name="e_wo_entrp">   -347.04998385 </i>
    <i name="e_0_energy">   -347.04998385 </i>
   </energy>
  </scstep>
  <scstep>
   <time name="dav">    0.61    0.61</time>
   <time name="total">    0.70    0.71</time>
   <energy>
    <i name="e_fr_energy">   -347.04981118 </i>
    <i name="e_wo_entrp">   -347.04981118 </i>
    <i name="e_0_energy">   -347.04981118 </i>
   </energy>
  </scstep>
  <scstep>
   <time name="dav">    1.22    1.22</time>
   <time name="total">    1.31    1.31</time>
   <energy>
    <i name="e_fr_energy">   -347.04977206 </i>
    <i name="e_wo_entrp">   -347.04977206 </i>
    <i name="e_0_energy">   -347.04977206 </i>
   </energy>
  </scstep>
  <scstep>
   <time name="dav">    0.57    0.57</time>
   <time name="total">    0.62    0.62</time>
   <energy>
    <i name="alphaZ">    105.38177171 </i>
    <i name="ewald">  -7262.20327724 </i>
    <i name="hartreedc">   -486.04907975 </i>
    <i name="XCdc">   -577.82337901 </i>
    <i name="pawpsdc">  26504.06975713 </i>
    <i name="pawaedc"> -25384.68812826 </i>
    <i name="eentropy">     -0.00000000 </i>
    <i name="bandstr">    158.05480093 </i>
    <i name="atom">   6596.20775861 </i>
    <i name="e_fr_energy">   -347.04977587 </i>
    <i name="e_wo_entrp">   -347.04977587 </i>
    <i name="e_0_energy">   -347.04977587 </i>
   </energy>
  </scstep>
  <structure>
   <crystal>
    <varray name="basis" >
     <v>      10.93745600       0.00000000       0.00000000 </v>
     <v>       0.00000000      10.93745600       0.00000000 </v>
     <v>       0.00000000       0.00000000      10.93745600 </v>
    </varray>
    <i name="volume">   1308.42537116 </i>
    <varray name="rec_basis" >
     <v>       0.09142894       0.00000000       0.00000000 </v>
     <v>       0.00000000       0.09142894       0.00000000 </v>
     <v>       0.00000000       0.00000000       0.09142894 </v>
    </varray>
   </crystal>
   <varray name="positions" >
    <v>       0.62461428       0.37497867       0.37499689 </v>
    <v>       0.87484669       0.62560888       0.37516360 </v>
    <v>       0.62494152       0.12487958       0.62535611 </v>
    <v>       0.87508011       0.37526689       0.62484037 </v>
    <v>       0.87516511       0.12508402       0.87490456 </v>
    <v>       0.12505067       0.62525127       0.12464435 </v>
    <v>       0.37483118       0.87500044       0.12513060 </v>
    <v>       0.12504981       0.37436847       0.37568566 </v>
    <v>       0.62497681       0.12493597       0.12470852 </v>
    <v>       0.87487544       0.37479082       0.12515563 </v>
    <v>       0.87451758       0.12488306       0.37522223 </v>
    <v>       0.12486494       0.12492947       0.12535021 </v>
    <v>       0.37429414       0.37472886       0.12489496 </v>
    <v>       0.62512148       0.62469275       0.12558339 </v>
    <v>       0.87570307       0.87483830       0.12490497 </v>
    <v>       0.37484584       0.12501030       0.37480134 </v>
    <v>       0.87483374       0.62499892       0.87456893 </v>
    <v>       0.12472728       0.87544986       0.37501944 </v>
    <v>       0.12498603       0.62473635       0.62461479 </v>
    <v>       0.37546141       0.87471762       0.62498314 </v>
    <v>       0.12468668       0.37509844       0.87485214 </v>
    <v>       0.37524542       0.62473342       0.87493178 </v>
    <v>       0.62469308       0.87462007       0.87526616 </v>
    <v>       0.12507645       0.87514313       0.87526271 </v>
    <v>       0.37506715       0.62511421       0.37483882 </v>
    <v>       0.62550483       0.87515924       0.37474211 </v>
    <v>       0.12475795       0.12501485       0.62514738 </v>
    <v>       0.37499124       0.37564568       0.62523176 </v>
    <v>       0.62507270       0.62481805       0.62485417 </v>
    <v>       0.87515397       0.87484834       0.62488959 </v>
    <v>       0.37448870       0.12487322       0.87441176 </v>
    <v>       0.62498990       0.37497292       0.87483822 </v>
    <v>       0.50048648       0.49985816       0.99986475 </v>
    <v>       0.74994888       0.74984920       0.00034176 </v>
    <v>       0.25062292       0.99981248       0.24978688 </v>
    <v>       0.50029987       0.25046088       0.24993477 </v>
    <v>       0.74979231       0.49991416       0.25014073 </v>
    <v>       0.00017097       0.74942283       0.25029323 </v>
    <v>       0.49966291       0.00033210       0.50024545 </v>
    <v>       0.74969476       0.25058994       0.50001890 </v>
    <v>       0.00025566       0.99976164       0.99991942 </v>
    <v>       0.49992023       0.99992845       0.00018638 </v>
    <v>       0.75002196       0.24979071       0.99996455 </v>
    <v>       0.00017699       0.50011770       0.00020975 </v>
    <v>       0.74989359       0.00015795       0.24968613 </v>
    <v>       0.00002522       0.25015731       0.24991314 </v>
    <v>       0.00036953       0.00010653       0.49946331 </v>
    <v>       0.25015564       0.24994936       0.99949044 </v>
    <v>       0.75059421       0.74967180       0.50000649 </v>
    <v>       0.24996108       0.00018753       0.75006658 </v>
    <v>       0.49989155       0.24985895       0.74984381 </v>
    <v>       0.75013529       0.49993420       0.74994038 </v>
    <v>       0.00002370       0.74968643       0.74981983 </v>
    <v>       0.25000598       0.74983326       0.49997481 </v>
    <v>       0.25021263       0.50038211       0.75017178 </v>
    <v>       0.49990051       0.75036418       0.74990419 </v>
    <v>       0.99980071       0.49965864       0.50034914 </v>
    <v>       0.75026676       0.00020733       0.74991598 </v>
    <v>       0.99999117       0.24978091       0.75045827 </v>
    <v>       0.24995768       0.75014915       0.00025812 </v>
    <v>       0.24961102       0.50015772       0.24979920 </v>
    <v>       0.49977472       0.74996166       0.25012316 </v>
    <v>       0.24995994       0.24996975       0.50009463 </v>
    <v>       0.49989994       0.50079490       0.50001776 </v>
   </varray>
  </structure>
  <varray name="forces" >
   <v>       0.01650083       0.06668097       0.03033374 </v>
   <v>       0.04023018      -0.15509577      -0.01520629 </v>
   <v>       0.01582986       0.03922447      -0.05496600 </v>
   <v>      -0.01381835      -0.07105844       0.06720765 </v>
   <v>      -0.01374113      -0.04166798       0.04787551 </v>
   <v>      -0.00724955      -0.02698542       0.05082014 </v>
   <v>       0.05486524      -0.02602910      -0.02429290 </v>
   <v>      -0.02185527       0.09228119      -0.08690306 </v>
   <v>      -0.01288923       0.02506552       0.03241952 </v>
   <v>       0.01238902       0.04369642      -0.02256634 </v>
   <v>       0.03374671       0.05708036      -0.04093976 </v>
   <v>       0.05532002       0.00946920      -0.06519921 </v>
   <v>       0.09164109       0.05490343      -0.01769124 </v>
   <v>      -0.03279469       0.03451931      -0.05805325 </v>
   <v>      -0.06694111      -0.00363434       0.03174113 </v>
   <v>       0.04621312       0.03698260       0.01475720 </v>
   <v>       0.01802008      -0.00409263       0.07993825 </v>
   <v>       0.09379643      -0.07708323      -0.03913813 </v>
   <v>       0.01415695       0.01563186       0.04705059 </v>
   <v>      -0.09850050       0.05235790      -0.00170389 </v>
   <v>       0.06062721       0.01503547       0.02292836 </v>
   <v>       0.00035447       0.07005437       0.04430114 </v>
   <v>       0.06782732       0.06537168      -0.01704233 </v>
   <v>      -0.00020647      -0.04641814      -0.06286917 </v>
   <v>      -0.05149674      -0.00812587      -0.00874493 </v>
   <v>      -0.06747695      -0.01451378       0.06267772 </v>
   <v>       0.02700221       0.00068086      -0.01641228 </v>
   <v>       0.01034124      -0.05303959      -0.04249541 </v>
   <v>       0.01556314       0.06222541       0.03893969 </v>
   <v>       0.03032769       0.03979372      -0.00627165 </v>
   <v>       0.09099249       0.00672526       0.07476922 </v>
   <v>       0.02053867      -0.03315453       0.00206560 </v>
   <v>      -0.06515279      -0.01183566       0.05671656 </v>
   <v>       0.01767101      -0.00661686      -0.01671435 </v>
   <v>      -0.10136649       0.02619797       0.03475115 </v>
   <v>      -0.07093868      -0.06928559      -0.02571940 </v>
   <v>       0.05006617      -0.00532099       0.03825754 </v>
   <v>       0.00974309       0.08422604      -0.03060526 </v>
   <v>       0.07333325      -0.04697291      -0.05944153 </v>
   <v>       0.00342032      -0.07238803       0.02455638 </v>
   <v>      -0.01854795       0.05349961       0.01637844 </v>
   <v>      -0.04213325       0.01692987      -0.05851485 </v>
   <v>      -0.00062498       0.02825013      -0.01908331 </v>
   <v>      -0.07116327      -0.01116596      -0.04175674 </v>
   <v>       0.05131132      -0.03166342      -0.01403610 </v>
   <v>      -0.03153326      -0.04931030       0.06709007 </v>
   <v>      -0.08636019       0.01024532       0.08574676 </v>
   <v>      -0.08382835      -0.02844732       0.03790705 </v>
   <v>      -0.09921120       0.07758035       0.01736362 </v>
   <v>      -0.01238755      -0.08390665      -0.06170718 </v>
   <v>      -0.00639916       0.03396994       0.01603268 </v>
   <v>      -0.03137712      -0.00893928      -0.01125778 </v>
   <v>       0.03250369       0.04562075       0.01514236 </v>
   <v>      -0.01346879       0.04901251      -0.01717405 </v>
   <v>      -0.06456795      -0.03546104      -0.01024599 </v>
   <v>       0.03799490      -0.08788692       0.01008492 </v>
   <v>       0.01646701       0.05108295      -0.08682803 </v>
   <v>      -0.03776348      -0.07334302       0.03770441 </v>
   <v>      -0.02208937       0.05202393      -0.08512061 </v>
   <v>       0.04069289      -0.01787375      -0.06362927 </v>
   <v>       0.00460955      -0.04171570       0.05283798 </v>
   <v>       0.05331982       0.02808653      -0.00574701 </v>
   <v>       0.04571973      -0.00964210       0.04959182 </v>
   <v>      -0.00325151      -0.08945800      -0.01633971 </v>
  </varray>
  <varray name="stress" >
   <v>      -0.14150657       0.04966850       0.18362065 </v>
   <v>       0.04966844      -0.14380867       0.35987536 </v>
   <v>       0.18362067       0.35987532      -0.13619237 </v>
  </varray>
  <energy>
   <i name="e_fr_energy">   -347.04977587 </i>
   <i name="e_wo_entrp">   -347.04977587 </i>
   <i name="e_0_energy">   -347.04977587 </i>
   <i name="kinetic">      2.43163221 </i>
   <i name="lattice kinetic">      0.00000000 </i>
   <i name="nosepot">     -0.00000000 </i>
   <i name="nosekinetic">      0.00000000 </i>
   <i name="total">   -344.61814366 </i>
  </energy>
  <time name="totalsc">    5.79    5.83</time>
 </calculation>
 <calculation>
  <scstep>
   <time name="dav">    1.20    1.20</time>
   <time name="total">    1.33    1.34</time>
   <energy>
    <i name="alphaZ">    105.38177171 </i>
    <i name="ewald">  -7262.09983292 </i>
    <i name="hartreedc">   -486.10478350 </i>
    <i name="XCdc">   -577.82279852 </i>
    <i name="pawpsdc">  26504.66510929 </i>
    <i name="pawaedc"> -25385.28420668 </i>
    <i name="eentropy">     -0.00000000 </i>
    <i name="bandstr">    158.04067769 </i>
    <i name="atom">   6596.20775861 </i>
    <i name="e_fr_energy">   -347.01630431 </i>
    <i name="e_wo_entrp">   -347.01630431 </i>
    <i name="e_0_energy">   -347.01630431 </i>
   </energy>
  </scstep>
  <scstep>
   <time name="dav">    0.57    0.57</time>
   <time name="total">    0.66    0.66</time>
   <energy>
    <i name="e_fr_energy">   -347.01633235 </i>
    <i name="e_wo_entrp">   -347.01633235 </i>
    <i name="e_0_energy">   -347.01633235 </i>
   </energy>
  </scstep>
  <scstep>
   <time name="dav">    0.43    0.43</time>
   <time name="total">    0.51    0.52</time>
   <energy>
    <i name="e_fr_energy">   -347.01633178 </i>
    <i name="e_wo_entrp">   -347.01633178 </i>
    <i name="e_0_energy">   -347.01633178 </i>
   </energy>
  </scstep>
  <scstep>
   <time name="dav">    0.42    0.42</time>
   <time name="total">    0.51    0.51</time>
   <energy>
    <i name="e_fr_energy">   -347.01633172 </i>
    <i name="e_wo_entrp">   -347.01633172 </i>
    <i name="e_0_energy">   -347.01633172 </i>
   </energy>
  </scstep>
  <scstep>
   <time name="dav">    0.42    0.42</time>
   <time name="total">    0.47    0.47</time>
   <energy>
    <i name="alphaZ">    105.38177171 </i>
    <i name="ewald">  -7262.09983292 </i>
    <i name="hartreedc">   -486.09867464 </i>
    <i name="XCdc">   -577.82310150 </i>
    <i name="pawpsdc">  26506.61017626 </i>
    <i name="pawaedc"> -25387.22994465 </i>
    <i name="eentropy">     -0.00000000 </i>
    <i name="bandstr">    158.03551526 </i>
    <i name="atom">   6596.20775861 </i>
    <i name="e_fr_energy">   -347.01633187 </i>
    <i name="e_wo_entrp">   -347.01633187 </i>
    <i name="e_0_energy">   -347.01633187 </i>
   </energy>
  </scstep>
  <structure>
   <crystal>
    <varray name="basis" >
     <v>      10.93745600       0.00000000       0.00000000 </v>
     <v>       0.00000000      10.93745600       0.00000000 </v>
     <v>       0.00000000       0.00000000      10.93745600 </v>
    </varray>
    <i name="volume">   1308.42537116 </i>
    <varray name="rec_basis" >
     <v>       0.09142894       0.00000000       0.00000000 </v>
     <v>       0.00000000       0.09142894       0.00000000 </v>
     <v>       0.00000000       0.00000000       0.09142894 </v>
    </varray>
   </crystal>
   <varray name="positions" >
    <v>       0.62422907       0.37495943       0.37499474 </v>
    <v>       0.87469465       0.62621288       0.37532672 </v>
    <v>       0.62488353       0.12476040       0.62571048 </v>
    <v>       0.87515978       0.37553154       0.62468284 </v>
    <v>       0.87532979       0.12516673       0.87481061 </v>
    <v>       0.12510112       0.62550169       0.12429030 </v>
    <v>       0.37466408       0.87500007       0.12526043 </v>
    <v>       0.12509893       0.37373983       0.37636859 </v>
    <v>       0.62495322       0.12487274       0.12441805 </v>
    <v>       0.87475127       0.37458301       0.12531054 </v>
    <v>       0.87403621       0.12476790       0.37544317 </v>
    <v>       0.12473162       0.12485924       0.12569837 </v>
    <v>       0.37359115       0.37445944       0.12478937 </v>
    <v>       0.62524193       0.62438658       0.12616496 </v>
    <v>       0.87640404       0.87467648       0.12481094 </v>
    <v>       0.37469313       0.12502176       0.37460314 </v>
    <v>       0.87466805       0.62499771       0.87414037 </v>
    <v>       0.12445751       0.87589730       0.37503765 </v>
    <v>       0.12497250       0.62447319       0.62423105 </v>
    <v>       0.37591972       0.87443689       0.62496622 </v>
    <v>       0.12437526       0.37519734       0.87470500 </v>
    <v>       0.37549085       0.62446903       0.87486495 </v>
    <v>       0.62438829       0.87424220       0.87553178 </v>
    <v>       0.12515289       0.87528480       0.87552344 </v>
    <v>       0.37513268       0.62522816       0.37467737 </v>
    <v>       0.62600754       0.87531803       0.37448619 </v>
    <v>       0.12451675       0.12502972       0.62529424 </v>
    <v>       0.37498280       0.37628970       0.62546219 </v>
    <v>       0.62514589       0.62463806       0.62470956 </v>
    <v>       0.87530889       0.87469792       0.62477898 </v>
    <v>       0.37398026       0.12474666       0.87382586 </v>
    <v>       0.62498044       0.37494479       0.87467651 </v>
    <v>       0.50097091       0.49971595       0.99973127 </v>
    <v>       0.74989831       0.74969820       0.00068298 </v>
    <v>       0.25124266       0.99962577       0.24957484 </v>
    <v>       0.50059750       0.25091957       0.24986874 </v>
    <v>       0.74958619       0.49982816       0.25028266 </v>
    <v>       0.00034225       0.74884830       0.25058549 </v>
    <v>       0.49932812       0.00066272       0.50048902 </v>
    <v>       0.74938962       0.25117760       0.50003857 </v>
    <v>       0.00051074       0.99952497       0.99983935 </v>
    <v>       0.49983914       0.99985742       0.00037091 </v>
    <v>       0.75004389       0.24958231       0.99992851 </v>
    <v>       0.00035175       0.50023506       0.00041818 </v>
    <v>       0.74978878       0.00031491       0.24937182 </v>
    <v>       0.00004944       0.25031308       0.24982839 </v>
    <v>       0.00073635       0.00021338       0.49892932 </v>
    <v>       0.25030864       0.24989782       0.99898206 </v>
    <v>       0.75118530       0.74934604       0.50001352 </v>
    <v>       0.24992176       0.00037242       0.75013121 </v>
    <v>       0.49978289       0.24971897       0.74968812 </v>
    <v>       0.75026959       0.49986812       0.74988041 </v>
    <v>       0.00004842       0.74937430       0.74964014 </v>
    <v>       0.25001153       0.74966805       0.49994908 </v>
    <v>       0.25042324       0.50076311       0.75034323 </v>
    <v>       0.49980221       0.75072560       0.74980869 </v>
    <v>       0.99960194       0.49931889       0.50069554 </v>
    <v>       0.75053234       0.00041235       0.74983315 </v>
    <v>       0.99998165       0.24956346       0.75091387 </v>
    <v>       0.24991663       0.75029775       0.00051424 </v>
    <v>       0.24922219       0.50031413       0.24960007 </v>
    <v>       0.49955111       0.74992420       0.25024615 </v>
    <v>       0.24992132       0.24993920       0.50019082 </v>
    <v>       0.49979978       0.50158699       0.50003501 </v>
   </varray>
  </structure>
  <varray name="forces" >
   <v>       0.02955262       0.13279126       0.06104176 </v>
   <v>       0.08038758      -0.30764527      -0.03204701 </v>
   <v>       0.03006478       0.07710357      -0.10537073 </v>
   <v>      -0.02905431      -0.13850899       0.13257348 </v>
   <v>      -0.02517713      -0.08196566       0.09418348 </v>
   <v>      -0.01411424      -0.05181312       0.09859719 </v>
   <v>       0.10677113      -0.05250607      -0.04791904 </v>
   <v>      -0.04649835       0.18251404      -0.17212793 </v>
   <v>      -0.02564696       0.04924394       0.06081246 </v>
   <v>       0.02302568       0.08389460      -0.04240490 </v>
   <v>       0.06410086       0.11167184      -0.07925039 </v>
   <v>       0.10818467       0.01668260      -0.12579721 </v>
   <v>       0.17982560       0.10749988      -0.03362209 </v>
   <v>      -0.06548516       0.06822122      -0.11451142 </v>
   <v>      -0.13119602      -0.00859332       0.06244996 </v>
   <v>       0.08945315       0.07329024       0.02717427 </v>
   <v>       0.03464864      -0.00752873       0.15603884 </v>
   <v>       0.18641551      -0.15289510      -0.08015823 </v>
   <v>       0.02803095       0.02962663       0.09066605 </v>
   <v>      -0.19377569       0.10292350      -0.00561187 </v>
   <v>       0.11736438       0.03124474       0.04471709 </v>
   <v>       0.00486740       0.13637091       0.08676005 </v>
   <v>       0.13196755       0.12611769      -0.03067801 </v>
   <v>       0.00154778      -0.09034047      -0.12137676 </v>
   <v>      -0.10167510      -0.01404144      -0.02004343 </v>
   <v>      -0.13149807      -0.02927792       0.12169157 </v>
   <v>       0.05000107       0.00167870      -0.03134677 </v>
   <v>       0.02143327      -0.10317619      -0.08375490 </v>
   <v>       0.03325570       0.12074304       0.07545480 </v>
   <v>       0.06261849       0.07582273      -0.01327341 </v>
   <v>       0.18025440       0.01583494       0.14761776 </v>
   <v>       0.04054073      -0.06606272       0.00000381 </v>
   <v>      -0.12628313      -0.02283679       0.11111510 </v>
   <v>       0.03470212      -0.01466022      -0.02969832 </v>
   <v>      -0.20148771       0.05245998       0.06960775 </v>
   <v>      -0.14019049      -0.13623905      -0.05351393 </v>
   <v>       0.09674779      -0.01274090       0.07851681 </v>
   <v>       0.02114672       0.16633423      -0.06022591 </v>
   <v>       0.14227213      -0.08944484      -0.11525543 </v>
   <v>       0.00601289      -0.14214647       0.04851822 </v>
   <v>      -0.03433526       0.10436606       0.03181666 </v>
   <v>      -0.08434045       0.03098492      -0.11247677 </v>
   <v>      -0.00086348       0.05236563      -0.03858244 </v>
   <v>      -0.13842982      -0.02152940      -0.08080333 </v>
   <v>       0.10088281      -0.06086003      -0.03082675 </v>
   <v>      -0.06111824      -0.09397905       0.13166712 </v>
   <v>      -0.17152374       0.02355073       0.16977522 </v>
   <v>      -0.16510609      -0.05588656       0.07217428 </v>
   <v>      -0.19667702       0.15497786       0.03717505 </v>
   <v>      -0.02727261      -0.16413734      -0.12149794 </v>
   <v>      -0.01426950       0.06537984       0.02930859 </v>
   <v>      -0.05984462      -0.02015998      -0.02380017 </v>
   <v>       0.06435638       0.08650473       0.02778880 </v>
   <v>      -0.02586046       0.09324787      -0.03363705 </v>
   <v>      -0.12777905      -0.06759934      -0.01973659 </v>
   <v>       0.07499376      -0.17205453       0.02071083 </v>
   <v>       0.03342688       0.09993538      -0.17098058 </v>
   <v>      -0.07034315      -0.14192525       0.07273873 </v>
   <v>      -0.04292659       0.10178002      -0.16711700 </v>
   <v>       0.08024545      -0.03284382      -0.12235772 </v>
   <v>       0.00752188      -0.08159003       0.10273247 </v>
   <v>       0.10301742       0.05573087      -0.01031066 </v>
   <v>       0.09039088      -0.02154671       0.10150210 </v>
   <v>      -0.00743414      -0.17625625      -0.03260243 </v>
  </varray>
  <varray name="stress" >
   <v>      -0.04989392       0.09898756       0.36050434 </v>
   <v>       0.09898756      -0.06058181       0.71438398 </v>
   <v>       0.36050431       0.71438399      -0.04418984 </v>
  </varray>
  <energy>
   <i name="e_fr_energy">   -347.01633187 </i>
   <i name="e_wo_entrp">   -347.01633187 </i>
   <i name="e_0_energy">   -347.01633187 </i>
   <i name="kinetic">      2.39848955 </i>
   <i name="lattice kinetic">      0.00000000 </i>
   <i name="nosepot">     -0.00028073 </i>
   <i name="nosekinetic">      0.00000261 </i>
   <i name="total">   -344.61812043 </i>
  </energy>
  <time name="totalsc">    4.54    4.64</time>
 </calculation>
 <calculation>
  <scstep>
   <time name="dav">    1.39    1.40</time>
   <time name="total">    1.77    1.78</time>
   <energy>
    <i name="alphaZ">    105.38177171 </i>
    <i name="ewald">  -7261.93059351 </i>
    <i name="hartreedc">   -486.17377406 </i>
    <i name="XCdc">   -577.82274026 </i>
    <i name="pawpsdc">  26513.17312441 </i>
    <i name="pawaedc"> -25393.79561661 </i>
    <i name="eentropy">     -0.00000000 </i>
    <i name="bandstr">    157.99801859 </i>
    <i name="atom">   6596.20775861 </i>
    <i name="e_fr_energy">   -346.96205112 </i>
    <i name="e_wo_entrp">   -346.96205112 </i>
    <i name="e_0_energy">   -346.96205112 </i>
   </energy>
  </scstep>
  <scstep>
   <time name="dav">    0.57    0.58</time>
   <time name="total">    0.66    0.67</time>
   <energy>
    <i name="e_fr_energy">   -346.96208728 </i>
    <i name="e_wo_entrp">   -346.96208728 </i>
    <i name="e_0_energy">   -346.96208728 </i>
   </energy>
  </scstep>
  <scstep>
   <time name="dav">    0.52    0.52</time>
   <time name="total">    0.61    0.61</time>
   <energy>
    <i name="e_fr_energy">   -346.96208650 </i>
    <i name="e_wo_entrp">   -346.96208650 </i>
    <i name="e_0_energy">   -346.96208650 </i>
   </energy>
  </scstep>
  <scstep>
   <time name="dav">    0.42    0.42</time>
   <time name="total">    0.51    0.51</time>
   <energy>
    <i name="e_fr_energy">   -346.96208623 </i>
    <i name="e_wo_entrp">   -346.96208623 </i>
    <i name="e_0_energy">   -346.96208623 </i>
   </energy>
  </scstep>
  <scstep>
   <time name="dav">    0.43    0.43</time>
   <time name="total">    0.48    0.48</time>
   <energy>
    <i name="alphaZ">    105.38177171 </i>
    <i name="ewald">  -7261.93059351 </i>
    <i name="hartreedc">   -486.17841583 </i>
    <i name="XCdc">   -577.82286206 </i>
    <i name="pawpsdc">  26509.60989731 </i>
    <i name="pawaedc"> -25390.23191373 </i>
    <i name="eentropy">     -0.00000000 </i>
    <i name="bandstr">    158.00227112 </i>
    <i name="atom">   6596.20775861 </i>
    <i name="e_fr_energy">   -346.96208638 </i>
    <i name="e_wo_entrp">   -346.96208638 </i>
    <i name="e_0_energy">   -346.96208638 </i>
   </energy>
  </scstep>
  <structure>
   <crystal>
    <varray name="basis" >
     <v>      10.93745600       0.00000000       0.00000000 </v>
     <v>       0.00000000      10.93745600       0.00000000 </v>
     <v>       0.00000000       0.00000000      10.93745600 </v>
    </varray>
    <i name="volume">   1308.42537116 </i>
    <varray name="rec_basis" >
     <v>       0.09142894       0.00000000       0.00000000 </v>
     <v>       0.00000000       0.09142894       0.00000000 </v>
     <v>       0.00000000       0.00000000       0.09142894 </v>
    </varray>
   </crystal>
   <varray name="positions" >
    <v>       0.62384474       0.37494436       0.37499450 </v>
    <v>       0.87454511       0.62680729       0.37548885 </v>
    <v>       0.62482649       0.12464362       0.62606159 </v>
    <v>       0.87523854       0.37579188       0.62452946 </v>
    <v>       0.87549370       0.12524688       0.87471962 </v>
    <v>       0.12515113       0.62575052       0.12393931 </v>
    <v>       0.37450031       0.87499804       0.12538877 </v>
    <v>       0.12514660       0.37311686       0.37704620 </v>
    <v>       0.62492882       0.12481104       0.12412946 </v>
    <v>       0.87462781       0.37437782       0.12546414 </v>
    <v>       0.87355680       0.12465625       0.37566165 </v>
    <v>       0.12460168       0.12478952       0.12604262 </v>
    <v>       0.37289373       0.37419337       0.12468270 </v>
    <v>       0.62536033       0.62408252       0.12674300 </v>
    <v>       0.87710096       0.87451438       0.12471885 </v>
    <v>       0.37454321       0.12503553       0.37440577 </v>
    <v>       0.87450342       0.62499627       0.87371666 </v>
    <v>       0.12419356       0.87633998       0.37505334 </v>
    <v>       0.12495985       0.62421092       0.62385012 </v>
    <v>       0.37637200       0.87415936       0.62494912 </v>
    <v>       0.12406749       0.37529725       0.87455925 </v>
    <v>       0.37573646       0.62420890       0.87480083 </v>
    <v>       0.62408762       0.87386825       0.87579647 </v>
    <v>       0.12522939       0.87542366       0.87578039 </v>
    <v>       0.37519503       0.62534168       0.37451527 </v>
    <v>       0.62650618       0.87547592       0.37423406 </v>
    <v>       0.12427709       0.12504465       0.62544013 </v>
    <v>       0.37497503       0.37693055       0.62569001 </v>
    <v>       0.62522013       0.62446184       0.62456730 </v>
    <v>       0.87546579       0.87454987       0.62466794 </v>
    <v>       0.37347742       0.12462057       0.87324454 </v>
    <v>       0.62497225       0.37491458       0.87451477 </v>
    <v>       0.50145143       0.49957300       0.99960127 </v>
    <v>       0.74984882       0.74954671       0.00102332 </v>
    <v>       0.25185614       0.99944070       0.24936497 </v>
    <v>       0.50089077       0.25137405       0.24980101 </v>
    <v>       0.74938309       0.49974174       0.25042707 </v>
    <v>       0.00051421       0.74827894       0.25087589 </v>
    <v>       0.49899776       0.00099057       0.50072901 </v>
    <v>       0.74908463       0.25176087       0.50005977 </v>
    <v>       0.00076477       0.99929154       0.99976027 </v>
    <v>       0.49975538       0.99978736       0.00055194 </v>
    <v>       0.75006580       0.24937553       0.99989124 </v>
    <v>       0.00052218       0.50035175       0.00062410 </v>
    <v>       0.74968713       0.00046998       0.24905650 </v>
    <v>       0.00007175       0.25046591       0.24974776 </v>
    <v>       0.00109783       0.00032098       0.49840059 </v>
    <v>       0.25045648       0.24984452       0.99847590 </v>
    <v>       0.75177028       0.74902511       0.50002172 </v>
    <v>       0.24988158       0.00055217       0.75019204 </v>
    <v>       0.49967378       0.24958103       0.74953333 </v>
    <v>       0.75040202       0.49980139       0.74981968 </v>
    <v>       0.00007517       0.74906484       0.74946130 </v>
    <v>       0.25001628       0.74950575       0.49992229 </v>
    <v>       0.25062985       0.50114202       0.75051408 </v>
    <v>       0.49970625       0.75108166       0.74971384 </v>
    <v>       0.99940420       0.49898224       0.50103662 </v>
    <v>       0.75079573       0.00061294       0.74975259 </v>
    <v>       0.99997078       0.24934917       0.75136427 </v>
    <v>       0.24987810       0.75044532       0.00076654 </v>
    <v>       0.24883355       0.50046800       0.24940413 </v>
    <v>       0.49933070       0.74988849       0.25036882 </v>
    <v>       0.24988554       0.24990797       0.50029021 </v>
    <v>       0.49969937       0.50237363       0.50005124 </v>
   </varray>
  </structure>
  <varray name="forces" >
   <v>       0.04466365       0.19883588       0.09202730 </v>
   <v>       0.12157444      -0.45902260      -0.05203956 </v>
   <v>       0.04383444       0.11375029      -0.15615667 </v>
   <v>      -0.04654765      -0.20654776       0.19758564 </v>
   <v>      -0.03749105      -0.12224430       0.14008743 </v>
   <v>      -0.02150253      -0.07679421       0.14684298 </v>
   <v>       0.15942274      -0.07978833      -0.07164547 </v>
   <v>      -0.07348197       0.27261350      -0.25764878 </v>
[...]
       <r>    -2.9399     7.7187    55.3936 </r>
       <r>    -2.8846     5.1344    55.6776 </r>
       <r>    -2.8293     1.2655    55.7476 </r>
       <r>    -2.7740     0.0440    55.7500 </r>
       <r>    -2.7187     0.0009    55.7500 </r>
       <r>    -2.6634     0.1118    55.7562 </r>
       <r>    -2.6081     2.2126    55.8786 </r>
       <r>    -2.5528     9.3077    56.3934 </r>
       <r>    -2.4975    16.7442    57.3194 </r>
       <r>    -2.4422    18.3711    58.3354 </r>
       <r>    -2.3869     7.0013    58.7226 </r>
       <r>    -2.3316     0.4940    58.7499 </r>
       <r>    -2.2762     0.2646    58.7646 </r>
       <r>    -2.2209     3.1410    58.9383 </r>
       <r>    -2.1656    12.3459    59.6211 </r>
       <r>    -2.1103    24.3573    60.9682 </r>
       <r>    -2.0550    35.1803    62.9138 </r>
       <r>    -1.9997    40.8149    65.1711 </r>
       <r>    -1.9444    34.7152    67.0910 </r>
       <r>    -1.8891    17.4734    68.0574 </r>
       <r>    -1.8338     9.6371    68.5903 </r>
       <r>    -1.7785     6.1463    68.9303 </r>
       <r>    -1.7232     4.2752    69.1667 </r>
       <r>    -1.6679     3.1905    69.3432 </r>
       <r>    -1.6126    10.1501    69.9045 </r>
       <r>    -1.5573    15.4700    70.7601 </r>
       <r>    -1.5020    12.9839    71.4781 </r>
       <r>    -1.4467     9.4308    71.9997 </r>
       <r>    -1.3914     3.7879    72.2092 </r>
       <r>    -1.3361     0.8602    72.2568 </r>
       <r>    -1.2808     2.7453    72.4086 </r>
       <r>    -1.2255    12.3305    73.0906 </r>
       <r>    -1.1701    21.2787    74.2674 </r>
       <r>    -1.1148    22.3071    75.5011 </r>
       <r>    -1.0595    24.4398    76.8527 </r>
       <r>    -1.0042    34.6093    78.7668 </r>
       <r>    -0.9489    45.0546    81.2585 </r>
       <r>    -0.8936    39.4962    83.4429 </r>
       <r>    -0.8383    33.8401    85.3144 </r>
       <r>    -0.7830    30.2867    86.9894 </r>
       <r>    -0.7277    28.0913    88.5430 </r>
       <r>    -0.6724    42.3927    90.8875 </r>
       <r>    -0.6171    46.1329    93.4389 </r>
       <r>    -0.5618    35.2518    95.3885 </r>
       <r>    -0.5065    18.4867    96.4109 </r>
       <r>    -0.4512    10.6272    96.9986 </r>
       <r>    -0.3959     8.5574    97.4719 </r>
       <r>    -0.3406    17.5187    98.4408 </r>
       <r>    -0.2853    30.7994   100.1441 </r>
       <r>    -0.2300    34.5618   102.0556 </r>
       <r>    -0.1747    18.1873   103.0614 </r>
       <r>    -0.1194     4.5418   103.3126 </r>
       <r>    -0.0640    10.3560   103.8853 </r>
       <r>    -0.0087    13.5575   104.6351 </r>
       <r>     0.0466     5.6013   104.9449 </r>
       <r>     0.1019     6.5472   105.3070 </r>
       <r>     0.1572    11.5012   105.9431 </r>
       <r>     0.2125    12.4384   106.6310 </r>
       <r>     0.2678    11.9854   107.2938 </r>
       <r>     0.3231    17.8391   108.2804 </r>
       <r>     0.3784    34.5310   110.1902 </r>
       <r>     0.4337    34.8210   112.1159 </r>
       <r>     0.4890    21.3201   113.2951 </r>
       <r>     0.5443     7.6156   113.7162 </r>
       <r>     0.5996     0.6043   113.7497 </r>
       <r>     0.6549     0.0061   113.7500 </r>
       <r>     0.7102     0.0000   113.7500 </r>
       <r>     0.7655     0.0000   113.7500 </r>
       <r>     0.8208     0.0000   113.7500 </r>
       <r>     0.8761     0.0000   113.7500 </r>
       <r>     0.9314     0.0000   113.7500 </r>
       <r>     0.9867     0.0000   113.7500 </r>
       <r>     1.0421     0.0000   113.7500 </r>
       <r>     1.0974     0.0117   113.7506 </r>
       <r>     1.1527     0.5961   113.7836 </r>
       <r>     1.2080     5.7001   114.0989 </r>
       <r>     1.2633    19.0517   115.1525 </r>
       <r>     1.3186    30.7667   116.8541 </r>
       <r>     1.3739    43.6446   119.2678 </r>
       <r>     1.4292    53.0616   122.2024 </r>
       <r>     1.4845    43.9207   124.6314 </r>
       <r>     1.5398    36.1362   126.6299 </r>
       <r>     1.5951    28.2324   128.1913 </r>
       <r>     1.6504    24.8091   129.5634 </r>
       <r>     1.7057    20.2885   130.6855 </r>
       <r>     1.7610    20.7270   131.8318 </r>
       <r>     1.8163    18.8037   132.8717 </r>
       <r>     1.8716    14.6491   133.6819 </r>
       <r>     1.9269    13.2587   134.4151 </r>
       <r>     1.9822    17.2836   135.3710 </r>
       <r>     2.0375    26.9148   136.8595 </r>
       <r>     2.0928    37.2545   138.9199 </r>
       <r>     2.1482    57.8632   142.1200 </r>
       <r>     2.2035    78.1575   146.4425 </r>
       <r>     2.2588    79.2174   150.8236 </r>
       <r>     2.3141    74.5778   154.9482 </r>
       <r>     2.3694    61.4499   158.3467 </r>
       <r>     2.4247    40.5966   160.5918 </r>
       <r>     2.4800    21.8428   161.7999 </r>
       <r>     2.5353     7.4637   162.2126 </r>
       <r>     2.5906     0.6662   162.2495 </r>
       <r>     2.6459     0.0099   162.2500 </r>
       <r>     2.7012     0.1442   162.2580 </r>
       <r>     2.7565     4.3880   162.5007 </r>
       <r>     2.8118    27.8876   164.0430 </r>
       <r>     2.8671    58.3108   167.2679 </r>
       <r>     2.9224    76.0757   171.4753 </r>
       <r>     2.9777    76.4124   175.7012 </r>
       <r>     3.0330    61.9058   179.1250 </r>
       <r>     3.0883    53.3178   182.0737 </r>
       <r>     3.1436    43.6044   184.4852 </r>
       <r>     3.1989    44.8934   186.9681 </r>
       <r>     3.2543    53.1119   189.9054 </r>
       <r>     3.3096    56.0707   193.0064 </r>
       <r>     3.3649    55.4566   196.0734 </r>
       <r>     3.4202    41.4944   198.3683 </r>
       <r>     3.4755    29.0883   199.9770 </r>
       <r>     3.5308    37.7254   202.0634 </r>
       <r>     3.5861    47.8850   204.7117 </r>
       <r>     3.6414    42.9667   207.0880 </r>
       <r>     3.6967    29.1054   208.6976 </r>
       <r>     3.7520    34.8044   210.6225 </r>
       <r>     3.8073    41.8648   212.9378 </r>
       <r>     3.8626    41.4246   215.2288 </r>
       <r>     3.9179    35.0934   217.1697 </r>
       <r>     3.9732    22.7991   218.4306 </r>
       <r>     4.0285    22.9107   219.6976 </r>
       <r>     4.0838    29.2722   221.3165 </r>
       <r>     4.1391    39.5225   223.5023 </r>
       <r>     4.1944    53.3174   226.4511 </r>
       <r>     4.2497    65.0830   230.0505 </r>
       <r>     4.3050    58.3223   233.2760 </r>
       <r>     4.3604    51.0780   236.1008 </r>
       <r>     4.4157    42.3456   238.4428 </r>
       <r>     4.4710    40.8586   240.7025 </r>
       <r>     4.5263    43.6292   243.1154 </r>
       <r>     4.5816    27.2567   244.6228 </r>
       <r>     4.6369     9.8741   245.1689 </r>
       <r>     4.6922     5.3772   245.4663 </r>
       <r>     4.7475     8.1302   245.9159 </r>
       <r>     4.8028    10.1813   246.4790 </r>
       <r>     4.8581    18.5136   247.5029 </r>
       <r>     4.9134    30.2464   249.1757 </r>
       <r>     4.9687    24.4168   250.5260 </r>
       <r>     5.0240    13.1942   251.2557 </r>
       <r>     5.0793    10.1044   251.8146 </r>
       <r>     5.1346     5.8186   252.1364 </r>
       <r>     5.1899     2.3394   252.2657 </r>
       <r>     5.2452     3.9297   252.4831 </r>
       <r>     5.3005     9.2532   252.9948 </r>
       <r>     5.3558     9.5952   253.5255 </r>
       <r>     5.4111    12.1974   254.2001 </r>
       <r>     5.4665    13.6414   254.9545 </r>
       <r>     5.5218     5.3643   255.2512 </r>
       <r>     5.5771     3.0357   255.4191 </r>
       <r>     5.6324     4.0001   255.6403 </r>
       <r>     5.6877     4.2360   255.8746 </r>
       <r>     5.7430     2.0616   255.9886 </r>
       <r>     5.7983     0.2039   255.9999 </r>
       <r>     5.8536     0.0025   256.0000 </r>
       <r>     5.9089     0.0000   256.0000 </r>
       <r>     5.9642     0.0000   256.0000 </r>
       <r>     6.0195     0.0000   256.0000 </r>
       <r>     6.0748     0.0000   256.0000 </r>
       <r>     6.1301     0.0183   256.0010 </r>
       <r>     6.1854     0.9979   256.0562 </r>
       <r>     6.2407     8.6232   256.5331 </r>
       <r>     6.2960    17.2360   257.4863 </r>
       <r>     6.3513    15.7403   258.3569 </r>
       <r>     6.4066     9.3101   258.8718 </r>
       <r>     6.4619     2.2172   258.9944 </r>
       <r>     6.5172     0.1131   259.0006 </r>
       <r>     6.5726     0.4984   259.0282 </r>
       <r>     6.6279     3.0522   259.1970 </r>
       <r>     6.6832     8.3255   259.6574 </r>
       <r>     6.7385    15.8865   260.5360 </r>
       <r>     6.7938    22.0035   261.7529 </r>
       <r>     6.8491    23.7152   263.0645 </r>
       <r>     6.9044    19.4033   264.1376 </r>
       <r>     6.9597    13.9579   264.9096 </r>
       <r>     7.0150    13.5407   265.6584 </r>
       <r>     7.0703    24.2624   267.0003 </r>
       <r>     7.1256    30.7386   268.7003 </r>
       <r>     7.1809    17.7061   269.6795 </r>
       <r>     7.2362    11.8545   270.3351 </r>
       <r>     7.2915    11.4172   270.9665 </r>
       <r>     7.3468    13.2667   271.7002 </r>
       <r>     7.4021    31.5939   273.4475 </r>
       <r>     7.4574    46.5189   276.0203 </r>
       <r>     7.5127    62.1881   279.4596 </r>
       <r>     7.5680    67.3341   283.1835 </r>
       <r>     7.6233    53.7147   286.1542 </r>
       <r>     7.6787    26.7128   287.6315 </r>
       <r>     7.7340    21.3796   288.8139 </r>
       <r>     7.7893    39.8065   291.0154 </r>
       <r>     7.8446    52.0359   293.8933 </r>
       <r>     7.8999    52.5659   296.8004 </r>
       <r>     7.9552    51.0625   299.6245 </r>
       <r>     8.0105    50.4129   302.4125 </r>
       <r>     8.0658    57.9277   305.6162 </r>
       <r>     8.1211    61.4662   309.0156 </r>
       <r>     8.1764    53.2358   311.9598 </r>
       <r>     8.2317    39.9462   314.1690 </r>
       <r>     8.2870    24.4469   315.5211 </r>
       <r>     8.3423    16.8522   316.4531 </r>
       <r>     8.3976    15.5700   317.3142 </r>
       <r>     8.4529    21.2443   318.4891 </r>
       <r>     8.5082    29.4622   320.1185 </r>
       <r>     8.5635    22.5945   321.3681 </r>
       <r>     8.6188     6.3908   321.7215 </r>
       <r>     8.6741     0.5070   321.7496 </r>
       <r>     8.7294     0.0080   321.7500 </r>
       <r>     8.7848     0.0739   321.7541 </r>
       <r>     8.8401     1.2127   321.8212 </r>
       <r>     8.8954     2.5111   321.9601 </r>
       <r>     8.9507     0.6985   321.9987 </r>
       <r>     9.0060     0.0236   322.0000 </r>
       <r>     9.0613     0.0001   322.0000 </r>
       <r>     9.1166     0.0000   322.0000 </r>
       <r>     9.1719     0.0000   322.0000 </r>
       <r>     9.2272     0.0000   322.0000 </r>
       <r>     9.2825     0.0000   322.0000 </r>
       <r>     9.3378     0.0000   322.0000 </r>
       <r>     9.3931     0.0000   322.0000 </r>
       <r>     9.4484     0.0000   322.0000 </r>
       <r>     9.5037     0.0000   322.0000 </r>
       <r>     9.5590     0.0000   322.0000 </r>
       <r>     9.6143     0.0000   322.0000 </r>
      </set>
     </set>
    </array>
   </total>
  </dos>
 </calculation>
 <structure name="finalpos" >
  <crystal>
   <varray name="basis" >
    <v>      10.93745600       0.00000000       0.00000000 </v>
    <v>       0.00000000      10.93745600       0.00000000 </v>
    <v>       0.00000000       0.00000000      10.93745600 </v>
   </varray>
   <i name="volume">   1308.42537116 </i>
   <varray name="rec_basis" >
    <v>       0.09142894       0.00000000       0.00000000 </v>
    <v>       0.00000000       0.09142894       0.00000000 </v>
    <v>       0.00000000       0.00000000       0.09142894 </v>
   </varray>
  </crystal>
  <varray name="positions" >
   <v>       0.60147025       0.38197643       0.37910822 </v>
   <v>       0.88774862       0.62245313       0.38248505 </v>
   <v>       0.62285506       0.11165728       0.64048249 </v>
   <v>       0.85960280       0.36490899       0.62932072 </v>
   <v>       0.88538147       0.11045310       0.88418437 </v>
   <v>       0.12311889       0.61445049       0.12329090 </v>
   <v>       0.39032692       0.88404278       0.12275260 </v>
   <v>       0.12340942       0.36307757       0.37203968 </v>
   <v>       0.61801928       0.12863625       0.12261465 </v>
   <v>       0.87476161       0.37053037       0.13220073 </v>
   <v>       0.85324395       0.13242487       0.36527284 </v>
   <v>       0.12354181       0.11941625       0.12495169 </v>
   <v>       0.36616156       0.36614076       0.11313384 </v>
   <v>       0.63001257       0.61415198       0.12923837 </v>
   <v>       0.87514185       0.86984750       0.13039450 </v>
   <v>       0.38497924       0.13433716       0.38574213 </v>
   <v>       0.86670840       0.62658144       0.87370407 </v>
   <v>       0.12364306       0.89569960       0.37576076 </v>
   <v>       0.13155996       0.62682371       0.63308034 </v>
   <v>       0.39528325       0.87013230       0.61277034 </v>
   <v>       0.11380892       0.38270832       0.87601915 </v>
   <v>       0.39573503       0.62465534       0.87667263 </v>
   <v>       0.63743041       0.87304844       0.88601975 </v>
   <v>       0.14004475       0.85608746       0.87171628 </v>
   <v>       0.35750175       0.63095028       0.35530056 </v>
   <v>       0.63875236       0.87384122       0.36965314 </v>
   <v>       0.12525388       0.13194649       0.61306178 </v>
   <v>       0.37553764       0.38887367       0.62900019 </v>
   <v>       0.62889278       0.64408264       0.61746682 </v>
   <v>       0.88617227       0.88482778       0.62669898 </v>
   <v>       0.35734367       0.12677589       0.86058341 </v>
   <v>       0.62325020       0.37115576       0.88611714 </v>
   <v>       0.50263644       0.49643110       0.00887367 </v>
   <v>       0.74975754       0.74404679       0.00718051 </v>
   <v>       0.26073596       0.01686420       0.25605191 </v>
   <v>       0.48962811       0.25344744       0.24391501 </v>
   <v>       0.75270101       0.49113345       0.26520027 </v>
   <v>       0.00848863       0.75007489       0.25298503 </v>
   <v>       0.51267261       0.00358598       0.49731133 </v>
   <v>       0.72480991       0.24326159       0.49951518 </v>
   <v>       0.01297546       0.97815519       0.00250178 </v>
   <v>       0.50201709       0.00841333       0.97996433 </v>
   <v>       0.75594680       0.24191860       0.00447154 </v>
   <v>       0.98377698       0.50048316       0.00310782 </v>
   <v>       0.74096768       0.00234377       0.23576114 </v>
   <v>       0.99589410       0.24411928       0.25151521 </v>
   <v>       0.98508389       0.02230319       0.49361291 </v>
   <v>       0.23536038       0.24929785       0.99079426 </v>
   <v>       0.76704746       0.76607491       0.49895693 </v>
   <v>       0.24757301       0.98634243       0.72556298 </v>
   <v>       0.49514585       0.24783411       0.75110088 </v>
   <v>       0.73787797       0.50164307       0.74904818 </v>
   <v>       0.99515937       0.74591700       0.75164364 </v>
   <v>       0.24524711       0.75842763       0.49402541 </v>
   <v>       0.25147425       0.50681881       0.76167254 </v>
   <v>       0.51222815       0.76138020       0.75589917 </v>
   <v>       0.01065760       0.49002700       0.51180148 </v>
   <v>       0.75820107       0.99730665       0.75558754 </v>
   <v>       0.99698198       0.24122267       0.74908848 </v>
   <v>       0.26264681       0.73894495       0.00918339 </v>
   <v>       0.24533331       0.48524862       0.23896412 </v>
   <v>       0.50778491       0.74876397       0.25116602 </v>
   <v>       0.25710039       0.25804280       0.50276996 </v>
   <v>       0.47939457       0.52343014       0.49992927 </v>
  </varray>
  <varray name="velocities" >
   <v>       0.00021853       0.00039969       0.00008246 </v>
   <v>       0.00032796      -0.00058883      -0.00016862 </v>
   <v>       0.00001688       0.00020494      -0.00000706 </v>
   <v>      -0.00012667      -0.00006746       0.00063763 </v>
   <v>       0.00023956       0.00009855       0.00039082 </v>
   <v>      -0.00017786       0.00038202       0.00035007 </v>
   <v>       0.00004196      -0.00012921      -0.00017669 </v>
   <v>      -0.00058379       0.00051445      -0.00041958 </v>
   <v>       0.00006348       0.00028247       0.00049116 </v>
   <v>      -0.00005806       0.00020045      -0.00014178 </v>
   <v>       0.00064702      -0.00012374      -0.00004825 </v>
   <v>       0.00020363      -0.00065088      -0.00034614 </v>
   <v>       0.00068166      -0.00039190       0.00034393 </v>
   <v>      -0.00021783       0.00032101      -0.00044120 </v>
   <v>      -0.00030462       0.00025329       0.00017139 </v>
   <v>      -0.00011602      -0.00010329      -0.00008073 </v>
   <v>      -0.00004098      -0.00028565       0.00013462 </v>
   <v>       0.00021649      -0.00011576      -0.00058126 </v>
   <v>       0.00016451      -0.00021531       0.00063747 </v>
   <v>      -0.00017059       0.00008099       0.00039297 </v>
   <v>       0.00037420      -0.00017798      -0.00015236 </v>
   <v>      -0.00021281       0.00051940      -0.00035789 </v>
   <v>      -0.00030980       0.00000041      -0.00018709 </v>
   <v>       0.00038803      -0.00002381       0.00018782 </v>
   <v>       0.00038429      -0.00019662       0.00029587 </v>
   <v>      -0.00013095      -0.00096936      -0.00005970 </v>
   <v>       0.00002751       0.00009816      -0.00017245 </v>
   <v>       0.00026596      -0.00026848      -0.00021307 </v>
   <v>      -0.00002221       0.00028668      -0.00002654 </v>
   <v>      -0.00023022      -0.00003027      -0.00048102 </v>
   <v>       0.00046834       0.00050735       0.00053103 </v>
   <v>       0.00027708       0.00000287       0.00007592 </v>
   <v>       0.00016357       0.00051758       0.00004872 </v>
   <v>      -0.00016395       0.00009032      -0.00023715 </v>
   <v>      -0.00051429      -0.00015878       0.00047388 </v>
   <v>       0.00029196      -0.00069018       0.00017730 </v>
   <v>       0.00030315       0.00025874       0.00038098 </v>
   <v>      -0.00000345       0.00010467      -0.00012805 </v>
   <v>      -0.00026349      -0.00011837       0.00045720 </v>
   <v>       0.00014345      -0.00036607      -0.00010361 </v>
   <v>      -0.00044125       0.00022146      -0.00026132 </v>
   <v>      -0.00019629       0.00021199       0.00011761 </v>
   <v>      -0.00004161      -0.00018377      -0.00008074 </v>
   <v>       0.00015560      -0.00007537      -0.00003113 </v>
   <v>      -0.00032955       0.00031445      -0.00035849 </v>
   <v>       0.00005264       0.00026198       0.00011584 </v>
   <v>      -0.00024906       0.00006121       0.00087773 </v>
   <v>      -0.00013375      -0.00007735      -0.00014807 </v>
   <v>      -0.00024466      -0.00022158       0.00045856 </v>
   <v>       0.00016503      -0.00018023      -0.00020409 </v>
   <v>       0.00007954      -0.00039074       0.00042598 </v>
   <v>      -0.00024301      -0.00015714      -0.00042754 </v>
   <v>      -0.00013783       0.00031900       0.00006742 </v>
   <v>      -0.00006027       0.00022167       0.00000546 </v>
   <v>      -0.00074530      -0.00040176      -0.00010240 </v>
   <v>      -0.00003621      -0.00021809      -0.00032350 </v>
   <v>       0.00026432       0.00053101      -0.00048744 </v>
   <v>       0.00012413       0.00074854      -0.00005647 </v>
   <v>      -0.00025268       0.00004016      -0.00066247 </v>
   <v>      -0.00006992       0.00007506       0.00051422 </v>
   <v>       0.00033777       0.00063118       0.00010172 </v>
   <v>      -0.00043617      -0.00001064      -0.00071536 </v>
   <v>      -0.00008401      -0.00022961      -0.00026361 </v>
   <v>       0.00026089      -0.00094353      -0.00029291 </v>
  </varray>
 </structure>
</modeling>
