<?xml version="1.0" encoding="ISO-8859-1"?>
<modeling>
 <generator>
  <i name="program" type="string">vasp </i>
  <i name="version" type="string">6.2.1  </i>
  <i name="subversion" type="string">16May21 (build Jun 01 2021 16:23:53) complex                          parallel </i>
  <i name="platform" type="string">TETRA_NSC1 </i>
  <i name="date" type="string">2022 01 31 </i>
  <i name="time" type="string">16:40:18 </i>
 </generator>
 <incar>
  <i type="string" name="PREC">accurate</i>
  <i type="logical" name="ADDGRID"> T  </i>
  <i type="int" name="NELM">   100</i>
  <i type="int" name="NELMIN">     4</i>
  <i type="int" name="IBRION">     0</i>
  <i name="EDIFF">      0.00000001</i>
  <i name="EDIFFG">     -0.00001000</i>
  <i type="int" name="NSW">     0</i>
  <i type="int" name="ISIF">     2</i>
  <i name="ENCUT">    400.00000000</i>
  <i type="logical" name="LREAL"> F  </i>
  <i type="logical" name="LPLANE"> F  </i>
  <i type="int" name="ISMEAR">     0</i>
  <i name="SIGMA">      0.10000000</i>
  <i type="logical" name="LWAVE"> F  </i>
  <i type="logical" name="LCHARG"> F  </i>
  <i type="string" name="GGA">PS</i>
  <i type="logical" name="LEPSILON"> T  </i>
 </incar>
 <primitive_cell>
  <structure name="primitive_cell" >
   <crystal>
    <varray name="basis" >
     <v>       0.00000000       2.11287962       2.11287962 </v>
     <v>       2.11287962       0.00000000       2.11287962 </v>
     <v>       2.11287962       2.11287962       0.00000000 </v>
    </varray>
    <i name="volume">     18.86488924 </i>
    <varray name="rec_basis" >
     <v>      -0.23664386       0.23664386       0.23664386 </v>
     <v>       0.23664386      -0.23664386       0.23664386 </v>
     <v>       0.23664386       0.23664386      -0.23664386 </v>
    </varray>
   </crystal>
   <varray name="positions" >
    <v>       0.50000000       0.50000000       0.50000000 </v>
    <v>       0.00000000       0.00000000       0.00000000 </v>
   </varray>
  </structure>
  <varray name="primitive_index" >
   <v type="int" >        1 </v>
   <v type="int" >        2 </v>
  </varray>
 </primitive_cell>
 <kpoints>
  <generation param="Monkhorst-Pack">
   <v type="int" name="divisions">      21       21       21 </v>
   <v name="usershift">      0.00000000       0.00000000       0.00000000 </v>
   <v name="genvec1">      0.04761905      -0.00000000       0.00000000 </v>
   <v name="genvec2">     -0.00000000       0.04761905      -0.00000000 </v>
   <v name="genvec3">      0.00000000       0.00000000       0.04761905 </v>
   <v name="shift">      0.00000000       0.00000000       0.00000000 </v>
  </generation>
  <varray name="kpointlist" >
   <v>       0.00000000       0.00000000       0.00000000 </v>
   <v>       0.04761905       0.00000000      -0.00000000 </v>
   <v>       0.09523810      -0.00000000      -0.00000000 </v>
   <v>       0.14285714      -0.00000000      -0.00000000 </v>
   <v>       0.19047619      -0.00000000      -0.00000000 </v>
   <v>       0.23809524      -0.00000000      -0.00000000 </v>
   <v>       0.28571429       0.00000000      -0.00000000 </v>
   <v>       0.33333333       0.00000000      -0.00000000 </v>
   <v>       0.38095238      -0.00000000      -0.00000000 </v>
   <v>       0.42857143       0.00000000      -0.00000000 </v>
   <v>       0.47619048      -0.00000000      -0.00000000 </v>
   <v>       0.04761905       0.04761905      -0.00000000 </v>
   <v>       0.09523810       0.04761905      -0.00000000 </v>
   <v>       0.14285714       0.04761905      -0.00000000 </v>
   <v>       0.19047619       0.04761905      -0.00000000 </v>
   <v>       0.23809524       0.04761905      -0.00000000 </v>
   <v>       0.28571429       0.04761905       0.00000000 </v>
   <v>       0.33333333       0.04761905      -0.00000000 </v>
   <v>       0.38095238       0.04761905       0.00000000 </v>
   <v>       0.42857143       0.04761905       0.00000000 </v>
   <v>       0.47619048       0.04761905      -0.00000000 </v>
   <v>      -0.47619048       0.04761905       0.00000000 </v>
   <v>      -0.42857143       0.04761905      -0.00000000 </v>
   <v>      -0.38095238       0.04761905       0.00000000 </v>
   <v>      -0.33333333       0.04761905      -0.00000000 </v>
   <v>      -0.28571429       0.04761905       0.00000000 </v>
   <v>      -0.23809524       0.04761905       0.00000000 </v>
   <v>      -0.19047619       0.04761905       0.00000000 </v>
   <v>      -0.14285714       0.04761905      -0.00000000 </v>
   <v>      -0.09523810       0.04761905       0.00000000 </v>
   <v>      -0.04761905       0.04761905       0.00000000 </v>
   <v>       0.09523810       0.09523810      -0.00000000 </v>
   <v>       0.14285714       0.09523810      -0.00000000 </v>
   <v>       0.19047619       0.09523810      -0.00000000 </v>
   <v>       0.23809524       0.09523810      -0.00000000 </v>
   <v>       0.28571429       0.09523810      -0.00000000 </v>
   <v>       0.33333333       0.09523810      -0.00000000 </v>
   <v>       0.38095238       0.09523810      -0.00000000 </v>
   <v>       0.42857143       0.09523810      -0.00000000 </v>
   <v>       0.47619048       0.09523810      -0.00000000 </v>
   <v>      -0.47619048       0.09523810       0.00000000 </v>
   <v>      -0.42857143       0.09523810      -0.00000000 </v>
   <v>      -0.38095238       0.09523810      -0.00000000 </v>
   <v>      -0.33333333       0.09523810       0.00000000 </v>
   <v>      -0.28571429       0.09523810      -0.00000000 </v>
   <v>      -0.23809524       0.09523810       0.00000000 </v>
   <v>      -0.19047619       0.09523810       0.00000000 </v>
   <v>      -0.14285714       0.09523810       0.00000000 </v>
   <v>      -0.09523810       0.09523810      -0.00000000 </v>
   <v>       0.14285714       0.14285714      -0.00000000 </v>
   <v>       0.19047619       0.14285714      -0.00000000 </v>
   <v>       0.23809524       0.14285714      -0.00000000 </v>
   <v>       0.28571429       0.14285714      -0.00000000 </v>
   <v>       0.33333333       0.14285714      -0.00000000 </v>
   <v>       0.38095238       0.14285714       0.00000000 </v>
   <v>       0.42857143       0.14285714      -0.00000000 </v>
   <v>       0.47619048       0.14285714       0.00000000 </v>
   <v>      -0.47619048       0.14285714      -0.00000000 </v>
   <v>      -0.42857143       0.14285714      -0.00000000 </v>
   <v>      -0.38095238       0.14285714       0.00000000 </v>
   <v>      -0.33333333       0.14285714       0.00000000 </v>
   <v>      -0.28571429       0.14285714       0.00000000 </v>
   <v>      -0.23809524       0.14285714      -0.00000000 </v>
   <v>      -0.19047619       0.14285714       0.00000000 </v>
   <v>      -0.14285714       0.14285714      -0.00000000 </v>
   <v>       0.19047619       0.19047619      -0.00000000 </v>
   <v>       0.23809524       0.19047619      -0.00000000 </v>
   <v>       0.28571429       0.19047619      -0.00000000 </v>
   <v>       0.33333333       0.19047619      -0.00000000 </v>
   <v>       0.38095238       0.19047619      -0.00000000 </v>
   <v>       0.42857143       0.19047619      -0.00000000 </v>
   <v>       0.47619048       0.19047619      -0.00000000 </v>
   <v>      -0.47619048       0.19047619       0.00000000 </v>
   <v>      -0.42857143       0.19047619      -0.00000000 </v>
   <v>      -0.38095238       0.19047619       0.00000000 </v>
   <v>      -0.33333333       0.19047619       0.00000000 </v>
   <v>      -0.28571429       0.19047619      -0.00000000 </v>
   <v>      -0.23809524       0.19047619       0.00000000 </v>
   <v>      -0.19047619       0.19047619      -0.00000000 </v>
   <v>       0.23809524       0.23809524      -0.00000000 </v>
   <v>       0.28571429       0.23809524      -0.00000000 </v>
   <v>       0.33333333       0.23809524      -0.00000000 </v>
   <v>       0.38095238       0.23809524      -0.00000000 </v>
   <v>       0.42857143       0.23809524      -0.00000000 </v>
   <v>       0.47619048       0.23809524      -0.00000000 </v>
   <v>      -0.47619048       0.23809524      -0.00000000 </v>
   <v>      -0.42857143       0.23809524       0.00000000 </v>
   <v>      -0.38095238       0.23809524      -0.00000000 </v>
   <v>      -0.33333333       0.23809524      -0.00000000 </v>
   <v>      -0.28571429       0.23809524       0.00000000 </v>
   <v>      -0.23809524       0.23809524       0.00000000 </v>
   <v>       0.28571429       0.28571429      -0.00000000 </v>
   <v>       0.33333333       0.28571429      -0.00000000 </v>
   <v>       0.38095238       0.28571429      -0.00000000 </v>
   <v>       0.42857143       0.28571429      -0.00000000 </v>
   <v>       0.47619048       0.28571429      -0.00000000 </v>
   <v>      -0.47619048       0.28571429      -0.00000000 </v>
   <v>      -0.42857143       0.28571429      -0.00000000 </v>
   <v>      -0.38095238       0.28571429       0.00000000 </v>
   <v>      -0.33333333       0.28571429      -0.00000000 </v>
   <v>      -0.28571429       0.28571429       0.00000000 </v>
   <v>       0.33333333       0.33333333      -0.00000000 </v>
   <v>       0.38095238       0.33333333      -0.00000000 </v>
   <v>       0.42857143       0.33333333      -0.00000000 </v>
   <v>       0.47619048       0.33333333      -0.00000000 </v>
   <v>      -0.47619048       0.33333333      -0.00000000 </v>
   <v>      -0.42857143       0.33333333       0.00000000 </v>
   <v>      -0.38095238       0.33333333      -0.00000000 </v>
   <v>      -0.33333333       0.33333333       0.00000000 </v>
   <v>       0.38095238       0.38095238      -0.00000000 </v>
   <v>       0.42857143       0.38095238      -0.00000000 </v>
   <v>       0.47619048       0.38095238      -0.00000000 </v>
   <v>      -0.47619048       0.38095238      -0.00000000 </v>
   <v>      -0.42857143       0.38095238      -0.00000000 </v>
   <v>      -0.38095238       0.38095238      -0.00000000 </v>
   <v>       0.42857143       0.42857143      -0.00000000 </v>
   <v>       0.47619048       0.42857143      -0.00000000 </v>
   <v>      -0.47619048       0.42857143       0.00000000 </v>
   <v>      -0.42857143       0.42857143       0.00000000 </v>
   <v>       0.47619048       0.47619048      -0.00000000 </v>
   <v>      -0.47619048       0.47619048      -0.00000000 </v>
   <v>       0.14285714       0.09523810       0.04761905 </v>
   <v>       0.19047619       0.09523810       0.04761905 </v>
   <v>       0.23809524       0.09523810       0.04761905 </v>
   <v>       0.28571429       0.09523810       0.04761905 </v>
   <v>       0.33333333       0.09523810       0.04761905 </v>
   <v>       0.38095238       0.09523810       0.04761905 </v>
   <v>       0.42857143       0.09523810       0.04761905 </v>
   <v>       0.47619048       0.09523810       0.04761905 </v>
   <v>      -0.47619048       0.09523810       0.04761905 </v>
   <v>       0.19047619       0.14285714       0.04761905 </v>
   <v>       0.23809524       0.14285714       0.04761905 </v>
   <v>       0.28571429       0.14285714       0.04761905 </v>
   <v>       0.33333333       0.14285714       0.04761905 </v>
   <v>       0.38095238       0.14285714       0.04761905 </v>
   <v>       0.42857143       0.14285714       0.04761905 </v>
   <v>       0.47619048       0.14285714       0.04761905 </v>
   <v>      -0.47619048       0.14285714       0.04761905 </v>
   <v>      -0.42857143       0.14285714       0.04761905 </v>
   <v>      -0.38095238       0.14285714       0.04761905 </v>
   <v>      -0.33333333       0.14285714       0.04761905 </v>
   <v>      -0.28571429       0.14285714       0.04761905 </v>
   <v>      -0.23809524       0.14285714       0.04761905 </v>
   <v>      -0.19047619       0.14285714       0.04761905 </v>
   <v>      -0.14285714       0.14285714       0.04761905 </v>
   <v>      -0.09523810       0.14285714       0.04761905 </v>
   <v>       0.23809524       0.19047619       0.04761905 </v>
   <v>       0.28571429       0.19047619       0.04761905 </v>
   <v>       0.33333333       0.19047619       0.04761905 </v>
   <v>       0.38095238       0.19047619       0.04761905 </v>
   <v>       0.42857143       0.19047619       0.04761905 </v>
   <v>       0.47619048       0.19047619       0.04761905 </v>
   <v>      -0.47619048       0.19047619       0.04761905 </v>
   <v>      -0.42857143       0.19047619       0.04761905 </v>
   <v>      -0.38095238       0.19047619       0.04761905 </v>
   <v>      -0.33333333       0.19047619       0.04761905 </v>
   <v>      -0.28571429       0.19047619       0.04761905 </v>
   <v>      -0.23809524       0.19047619       0.04761905 </v>
   <v>      -0.19047619       0.19047619       0.04761905 </v>
   <v>      -0.14285714       0.19047619       0.04761905 </v>
   <v>       0.28571429       0.23809524       0.04761905 </v>
   <v>       0.33333333       0.23809524       0.04761905 </v>
   <v>       0.38095238       0.23809524       0.04761905 </v>
   <v>       0.42857143       0.23809524       0.04761905 </v>
   <v>       0.47619048       0.23809524       0.04761905 </v>
   <v>      -0.47619048       0.23809524       0.04761905 </v>
   <v>      -0.42857143       0.23809524       0.04761905 </v>
   <v>      -0.38095238       0.23809524       0.04761905 </v>
   <v>      -0.33333333       0.23809524       0.04761905 </v>
   <v>      -0.28571429       0.23809524       0.04761905 </v>
   <v>      -0.23809524       0.23809524       0.04761905 </v>
   <v>      -0.19047619       0.23809524       0.04761905 </v>
   <v>       0.33333333       0.28571429       0.04761905 </v>
   <v>       0.38095238       0.28571429       0.04761905 </v>
   <v>       0.42857143       0.28571429       0.04761905 </v>
   <v>       0.47619048       0.28571429       0.04761905 </v>
   <v>      -0.47619048       0.28571429       0.04761905 </v>
   <v>      -0.42857143       0.28571429       0.04761905 </v>
   <v>      -0.38095238       0.28571429       0.04761905 </v>
   <v>      -0.33333333       0.28571429       0.04761905 </v>
   <v>      -0.28571429       0.28571429       0.04761905 </v>
   <v>      -0.23809524       0.28571429       0.04761905 </v>
   <v>       0.38095238       0.33333333       0.04761905 </v>
   <v>       0.42857143       0.33333333       0.04761905 </v>
   <v>       0.47619048       0.33333333       0.04761905 </v>
   <v>      -0.47619048       0.33333333       0.04761905 </v>
   <v>      -0.42857143       0.33333333       0.04761905 </v>
   <v>      -0.38095238       0.33333333       0.04761905 </v>
   <v>      -0.33333333       0.33333333       0.04761905 </v>
   <v>      -0.28571429       0.33333333       0.04761905 </v>
   <v>       0.42857143       0.38095238       0.04761905 </v>
   <v>       0.47619048       0.38095238       0.04761905 </v>
   <v>      -0.47619048       0.38095238       0.04761905 </v>
   <v>      -0.42857143       0.38095238       0.04761905 </v>
   <v>      -0.38095238       0.38095238       0.04761905 </v>
   <v>      -0.33333333       0.38095238       0.04761905 </v>
   <v>       0.47619048       0.42857143       0.04761905 </v>
   <v>      -0.47619048       0.42857143       0.04761905 </v>
   <v>      -0.42857143       0.42857143       0.04761905 </v>
   <v>      -0.38095238       0.42857143       0.04761905 </v>
   <v>      -0.47619048       0.47619048       0.04761905 </v>
   <v>      -0.42857143       0.47619048       0.04761905 </v>
   <v>       0.28571429       0.19047619       0.09523810 </v>
   <v>       0.33333333       0.19047619       0.09523810 </v>
   <v>       0.38095238       0.19047619       0.09523810 </v>
   <v>       0.42857143       0.19047619       0.09523810 </v>
   <v>       0.47619048       0.19047619       0.09523810 </v>
   <v>      -0.47619048       0.19047619       0.09523810 </v>
   <v>      -0.42857143       0.19047619       0.09523810 </v>
   <v>       0.33333333       0.23809524       0.09523810 </v>
   <v>       0.38095238       0.23809524       0.09523810 </v>
   <v>       0.42857143       0.23809524       0.09523810 </v>
   <v>       0.47619048       0.23809524       0.09523810 </v>
   <v>      -0.47619048       0.23809524       0.09523810 </v>
   <v>      -0.42857143       0.23809524       0.09523810 </v>
   <v>      -0.38095238       0.23809524       0.09523810 </v>
   <v>      -0.33333333       0.23809524       0.09523810 </v>
   <v>      -0.28571429       0.23809524       0.09523810 </v>
   <v>      -0.23809524       0.23809524       0.09523810 </v>
   <v>      -0.19047619       0.23809524       0.09523810 </v>
   <v>      -0.14285714       0.23809524       0.09523810 </v>
   <v>       0.38095238       0.28571429       0.09523810 </v>
   <v>       0.42857143       0.28571429       0.09523810 </v>
   <v>       0.47619048       0.28571429       0.09523810 </v>
   <v>      -0.47619048       0.28571429       0.09523810 </v>
   <v>      -0.42857143       0.28571429       0.09523810 </v>
   <v>      -0.38095238       0.28571429       0.09523810 </v>
   <v>      -0.33333333       0.28571429       0.09523810 </v>
   <v>      -0.28571429       0.28571429       0.09523810 </v>
   <v>      -0.23809524       0.28571429       0.09523810 </v>
   <v>      -0.19047619       0.28571429       0.09523810 </v>
   <v>       0.42857143       0.33333333       0.09523810 </v>
   <v>       0.47619048       0.33333333       0.09523810 </v>
   <v>      -0.47619048       0.33333333       0.09523810 </v>
   <v>      -0.42857143       0.33333333       0.09523810 </v>
   <v>      -0.38095238       0.33333333       0.09523810 </v>
   <v>      -0.33333333       0.33333333       0.09523810 </v>
   <v>      -0.28571429       0.33333333       0.09523810 </v>
   <v>      -0.23809524       0.33333333       0.09523810 </v>
   <v>       0.47619048       0.38095238       0.09523810 </v>
   <v>      -0.47619048       0.38095238       0.09523810 </v>
   <v>      -0.42857143       0.38095238       0.09523810 </v>
   <v>      -0.38095238       0.38095238       0.09523810 </v>
   <v>      -0.33333333       0.38095238       0.09523810 </v>
   <v>      -0.28571429       0.38095238       0.09523810 </v>
   <v>      -0.47619048       0.42857143       0.09523810 </v>
   <v>      -0.42857143       0.42857143       0.09523810 </v>
   <v>      -0.38095238       0.42857143       0.09523810 </v>
   <v>      -0.33333333       0.42857143       0.09523810 </v>
   <v>      -0.42857143       0.47619048       0.09523810 </v>
   <v>      -0.38095238       0.47619048       0.09523810 </v>
   <v>       0.42857143       0.28571429       0.14285714 </v>
   <v>       0.47619048       0.28571429       0.14285714 </v>
   <v>      -0.47619048       0.28571429       0.14285714 </v>
   <v>      -0.42857143       0.28571429       0.14285714 </v>
   <v>      -0.38095238       0.28571429       0.14285714 </v>
   <v>       0.47619048       0.33333333       0.14285714 </v>
   <v>      -0.47619048       0.33333333       0.14285714 </v>
   <v>      -0.42857143       0.33333333       0.14285714 </v>
   <v>      -0.38095238       0.33333333       0.14285714 </v>
   <v>      -0.33333333       0.33333333       0.14285714 </v>
   <v>      -0.28571429       0.33333333       0.14285714 </v>
   <v>      -0.23809524       0.33333333       0.14285714 </v>
   <v>      -0.19047619       0.33333333       0.14285714 </v>
   <v>      -0.47619048       0.38095238       0.14285714 </v>
   <v>      -0.42857143       0.38095238       0.14285714 </v>
   <v>      -0.38095238       0.38095238       0.14285714 </v>
   <v>      -0.33333333       0.38095238       0.14285714 </v>
   <v>      -0.28571429       0.38095238       0.14285714 </v>
   <v>      -0.23809524       0.38095238       0.14285714 </v>
   <v>      -0.42857143       0.42857143       0.14285714 </v>
   <v>      -0.38095238       0.42857143       0.14285714 </v>
   <v>      -0.33333333       0.42857143       0.14285714 </v>
   <v>      -0.28571429       0.42857143       0.14285714 </v>
   <v>      -0.38095238       0.47619048       0.14285714 </v>
   <v>      -0.33333333       0.47619048       0.14285714 </v>
   <v>      -0.42857143       0.38095238       0.19047619 </v>
   <v>      -0.38095238       0.38095238       0.19047619 </v>
   <v>      -0.33333333       0.38095238       0.19047619 </v>
   <v>      -0.38095238       0.42857143       0.19047619 </v>
   <v>      -0.33333333       0.42857143       0.19047619 </v>
   <v>      -0.28571429       0.42857143       0.19047619 </v>
   <v>      -0.23809524       0.42857143       0.19047619 </v>
   <v>      -0.33333333       0.47619048       0.19047619 </v>
   <v>      -0.28571429       0.47619048       0.19047619 </v>
   <v>      -0.28571429       0.47619048       0.23809524 </v>
  </varray>
  <varray name="weights" >
   <v>       0.00010798 </v>
   <v>       0.00086384 </v>
   <v>       0.00086384 </v>
   <v>       0.00086384 </v>
   <v>       0.00086384 </v>
   <v>       0.00086384 </v>
   <v>       0.00086384 </v>
   <v>       0.00086384 </v>
   <v>       0.00086384 </v>
   <v>       0.00086384 </v>
   <v>       0.00086384 </v>
   <v>       0.00064788 </v>
   <v>       0.00259151 </v>
   <v>       0.00259151 </v>
   <v>       0.00259151 </v>
   <v>       0.00259151 </v>
   <v>       0.00259151 </v>
   <v>       0.00259151 </v>
   <v>       0.00259151 </v>
   <v>       0.00259151 </v>
   <v>       0.00259151 </v>
   <v>       0.00259151 </v>
   <v>       0.00259151 </v>
   <v>       0.00259151 </v>
   <v>       0.00259151 </v>
   <v>       0.00259151 </v>
   <v>       0.00259151 </v>
   <v>       0.00259151 </v>
   <v>       0.00259151 </v>
   <v>       0.00259151 </v>
   <v>       0.00129576 </v>
   <v>       0.00064788 </v>
   <v>       0.00259151 </v>
   <v>       0.00259151 </v>
   <v>       0.00259151 </v>
   <v>       0.00259151 </v>
   <v>       0.00259151 </v>
   <v>       0.00259151 </v>
   <v>       0.00259151 </v>
   <v>       0.00259151 </v>
   <v>       0.00259151 </v>
   <v>       0.00259151 </v>
   <v>       0.00259151 </v>
   <v>       0.00259151 </v>
   <v>       0.00259151 </v>
   <v>       0.00259151 </v>
   <v>       0.00259151 </v>
   <v>       0.00259151 </v>
   <v>       0.00129576 </v>
   <v>       0.00064788 </v>
   <v>       0.00259151 </v>
   <v>       0.00259151 </v>
   <v>       0.00259151 </v>
   <v>       0.00259151 </v>
   <v>       0.00259151 </v>
   <v>       0.00259151 </v>
   <v>       0.00259151 </v>
   <v>       0.00259151 </v>
   <v>       0.00259151 </v>
   <v>       0.00259151 </v>
   <v>       0.00259151 </v>
   <v>       0.00259151 </v>
   <v>       0.00259151 </v>
   <v>       0.00259151 </v>
   <v>       0.00129576 </v>
   <v>       0.00064788 </v>
   <v>       0.00259151 </v>
   <v>       0.00259151 </v>
   <v>       0.00259151 </v>
   <v>       0.00259151 </v>
   <v>       0.00259151 </v>
   <v>       0.00259151 </v>
   <v>       0.00259151 </v>
   <v>       0.00259151 </v>
   <v>       0.00259151 </v>
   <v>       0.00259151 </v>
   <v>       0.00259151 </v>
   <v>       0.00259151 </v>
   <v>       0.00129576 </v>
   <v>       0.00064788 </v>
   <v>       0.00259151 </v>
   <v>       0.00259151 </v>
   <v>       0.00259151 </v>
   <v>       0.00259151 </v>
   <v>       0.00259151 </v>
   <v>       0.00259151 </v>
   <v>       0.00259151 </v>
   <v>       0.00259151 </v>
   <v>       0.00259151 </v>
   <v>       0.00259151 </v>
   <v>       0.00129576 </v>
   <v>       0.00064788 </v>
   <v>       0.00259151 </v>
   <v>       0.00259151 </v>
   <v>       0.00259151 </v>
   <v>       0.00259151 </v>
   <v>       0.00259151 </v>
   <v>       0.00259151 </v>
   <v>       0.00259151 </v>
   <v>       0.00259151 </v>
   <v>       0.00129576 </v>
   <v>       0.00064788 </v>
   <v>       0.00259151 </v>
   <v>       0.00259151 </v>
   <v>       0.00259151 </v>
   <v>       0.00259151 </v>
   <v>       0.00259151 </v>
   <v>       0.00259151 </v>
   <v>       0.00129576 </v>
   <v>       0.00064788 </v>
   <v>       0.00259151 </v>
   <v>       0.00259151 </v>
   <v>       0.00259151 </v>
   <v>       0.00259151 </v>
   <v>       0.00129576 </v>
   <v>       0.00064788 </v>
   <v>       0.00259151 </v>
   <v>       0.00259151 </v>
   <v>       0.00129576 </v>
   <v>       0.00064788 </v>
   <v>       0.00129576 </v>
   <v>       0.00259151 </v>
   <v>       0.00518303 </v>
   <v>       0.00518303 </v>
   <v>       0.00518303 </v>
   <v>       0.00518303 </v>
   <v>       0.00518303 </v>
   <v>       0.00518303 </v>
   <v>       0.00518303 </v>
   <v>       0.00518303 </v>
   <v>       0.00259151 </v>
   <v>       0.00518303 </v>
   <v>       0.00518303 </v>
   <v>       0.00518303 </v>
   <v>       0.00518303 </v>
   <v>       0.00518303 </v>
   <v>       0.00518303 </v>
   <v>       0.00518303 </v>
   <v>       0.00518303 </v>
   <v>       0.00518303 </v>
   <v>       0.00518303 </v>
   <v>       0.00518303 </v>
   <v>       0.00518303 </v>
   <v>       0.00518303 </v>
   <v>       0.00518303 </v>
   <v>       0.00259151 </v>
   <v>       0.00259151 </v>
   <v>       0.00518303 </v>
   <v>       0.00518303 </v>
   <v>       0.00518303 </v>
   <v>       0.00518303 </v>
   <v>       0.00518303 </v>
   <v>       0.00518303 </v>
   <v>       0.00518303 </v>
   <v>       0.00518303 </v>
   <v>       0.00518303 </v>
   <v>       0.00518303 </v>
   <v>       0.00518303 </v>
   <v>       0.00518303 </v>
   <v>       0.00259151 </v>
   <v>       0.00259151 </v>
   <v>       0.00518303 </v>
   <v>       0.00518303 </v>
   <v>       0.00518303 </v>
   <v>       0.00518303 </v>
   <v>       0.00518303 </v>
   <v>       0.00518303 </v>
   <v>       0.00518303 </v>
   <v>       0.00518303 </v>
   <v>       0.00518303 </v>
   <v>       0.00518303 </v>
   <v>       0.00259151 </v>
   <v>       0.00259151 </v>
   <v>       0.00518303 </v>
   <v>       0.00518303 </v>
   <v>       0.00518303 </v>
   <v>       0.00518303 </v>
   <v>       0.00518303 </v>
   <v>       0.00518303 </v>
   <v>       0.00518303 </v>
   <v>       0.00518303 </v>
   <v>       0.00259151 </v>
   <v>       0.00259151 </v>
   <v>       0.00518303 </v>
   <v>       0.00518303 </v>
   <v>       0.00518303 </v>
   <v>       0.00518303 </v>
   <v>       0.00518303 </v>
   <v>       0.00518303 </v>
   <v>       0.00259151 </v>
   <v>       0.00259151 </v>
   <v>       0.00518303 </v>
   <v>       0.00518303 </v>
   <v>       0.00518303 </v>
   <v>       0.00518303 </v>
   <v>       0.00259151 </v>
   <v>       0.00259151 </v>
   <v>       0.00518303 </v>
   <v>       0.00518303 </v>
   <v>       0.00259151 </v>
   <v>       0.00259151 </v>
   <v>       0.00259151 </v>
   <v>       0.00259151 </v>
   <v>       0.00518303 </v>
   <v>       0.00518303 </v>
   <v>       0.00518303 </v>
   <v>       0.00518303 </v>
   <v>       0.00518303 </v>
   <v>       0.00518303 </v>
   <v>       0.00259151 </v>
   <v>       0.00518303 </v>
   <v>       0.00518303 </v>
   <v>       0.00518303 </v>
   <v>       0.00518303 </v>
   <v>       0.00518303 </v>
   <v>       0.00518303 </v>
   <v>       0.00518303 </v>
   <v>       0.00518303 </v>
   <v>       0.00518303 </v>
   <v>       0.00518303 </v>
   <v>       0.00259151 </v>
   <v>       0.00259151 </v>
   <v>       0.00518303 </v>
   <v>       0.00518303 </v>
   <v>       0.00518303 </v>
   <v>       0.00518303 </v>
   <v>       0.00518303 </v>
   <v>       0.00518303 </v>
   <v>       0.00518303 </v>
   <v>       0.00518303 </v>
   <v>       0.00259151 </v>
   <v>       0.00259151 </v>
   <v>       0.00518303 </v>
   <v>       0.00518303 </v>
   <v>       0.00518303 </v>
   <v>       0.00518303 </v>
   <v>       0.00518303 </v>
   <v>       0.00518303 </v>
   <v>       0.00259151 </v>
   <v>       0.00259151 </v>
   <v>       0.00518303 </v>
   <v>       0.00518303 </v>
   <v>       0.00518303 </v>
   <v>       0.00518303 </v>
   <v>       0.00259151 </v>
   <v>       0.00259151 </v>
   <v>       0.00518303 </v>
   <v>       0.00518303 </v>
   <v>       0.00259151 </v>
   <v>       0.00259151 </v>
   <v>       0.00259151 </v>
   <v>       0.00259151 </v>
   <v>       0.00518303 </v>
   <v>       0.00518303 </v>
   <v>       0.00518303 </v>
   <v>       0.00518303 </v>
   <v>       0.00259151 </v>
   <v>       0.00518303 </v>
   <v>       0.00518303 </v>
   <v>       0.00518303 </v>
   <v>       0.00518303 </v>
   <v>       0.00518303 </v>
   <v>       0.00518303 </v>
   <v>       0.00259151 </v>
   <v>       0.00259151 </v>
   <v>       0.00518303 </v>
   <v>       0.00518303 </v>
   <v>       0.00518303 </v>
   <v>       0.00518303 </v>
   <v>       0.00259151 </v>
   <v>       0.00259151 </v>
   <v>       0.00518303 </v>
   <v>       0.00518303 </v>
   <v>       0.00259151 </v>
   <v>       0.00259151 </v>
   <v>       0.00259151 </v>
   <v>       0.00259151 </v>
   <v>       0.00518303 </v>
   <v>       0.00518303 </v>
   <v>       0.00259151 </v>
   <v>       0.00518303 </v>
   <v>       0.00518303 </v>
   <v>       0.00259151 </v>
   <v>       0.00259151 </v>
   <v>       0.00259151 </v>
   <v>       0.00259151 </v>
  </varray>
 </kpoints>
 <parameters>
  <separator name="general" >
   <i type="string" name="SYSTEM">unknown system</i>
   <i type="logical" name="LCOMPAT"> F  </i>
  </separator>
  <separator name="electronic" >
   <i type="string" name="PREC">accura</i>
   <i name="ENMAX">    400.00000000</i>
   <i name="ENAUG">    605.39200000</i>
   <i name="EDIFF">      0.00000001</i>
   <i type="int" name="IALGO">    38</i>
   <i type="int" name="IWAVPR">    10</i>
   <i type="int" name="NBANDS">    32</i>
   <i type="int" name="NBANDSLOW">    -1</i>
   <i type="int" name="NBANDSHIGH">    -1</i>
   <i name="NELECT">      8.00000000</i>
   <i type="int" name="TURBO">     0</i>
   <i type="int" name="IRESTART">     0</i>
   <i type="int" name="NREBOOT">     0</i>
   <i type="int" name="NMIN">     0</i>
   <i name="EREF">      0.00000000</i>
   <separator name="electronic smearing" >
    <i type="int" name="ISMEAR">     0</i>
    <i name="SIGMA">      0.10000000</i>
    <i name="KSPACING">      0.50000000</i>
    <i type="logical" name="KGAMMA"> T  </i>
    <i type="logical" name="KBLOWUP"> T  </i>
   </separator>
   <separator name="electronic projectors" >
    <i type="logical" name="LREAL"> F  </i>
    <v name="ROPT">      0.00000000      0.00000000</v>
    <i type="int" name="LMAXPAW">  -100</i>
    <i type="int" name="LMAXMIX">     2</i>
    <i type="logical" name="NLSPLINE"> F  </i>
   </separator>
   <separator name="electronic startup" >
    <i type="int" name="ISTART">     0</i>
    <i type="int" name="ICHARG">     2</i>
    <i type="int" name="INIWAV">     1</i>
   </separator>
   <separator name="electronic spin" >
    <i type="int" name="ISPIN">     1</i>
    <i type="logical" name="LNONCOLLINEAR"> F  </i>
    <v name="MAGMOM">      1.00000000      1.00000000</v>
    <i name="NUPDOWN">     -1.00000000</i>
    <i type="logical" name="LSORBIT"> F  </i>
    <v name="SAXIS">      0.00000000      0.00000000      1.00000000</v>
    <i type="logical" name="LSPIRAL"> F  </i>
    <v name="QSPIRAL">      0.00000000      0.00000000      0.00000000</v>
    <i type="logical" name="LZEROZ"> F  </i>
   </separator>
   <separator name="electronic exchange-correlation" >
    <i type="logical" name="LASPH"> F  </i>
    <i type="logical" name="LMETAGGA"> F  </i>
   </separator>
   <separator name="electronic convergence" >
    <i type="int" name="NELM">   100</i>
    <i type="int" name="NELMDL">    -5</i>
    <i type="int" name="NELMIN">     4</i>
    <i name="ENINI">    400.00000000</i>
    <separator name="electronic convergence detail" >
     <i type="logical" name="LDIAG"> T  </i>
     <i type="logical" name="LSUBROT"> F  </i>
     <i name="WEIMIN">      0.00000000</i>
     <i name="EBREAK">      0.00000000</i>
     <i name="DEPER">      0.30000000</i>
     <i type="int" name="NRMM">     4</i>
     <i name="TIME">      0.40000000</i>
    </separator>
   </separator>
   <separator name="electronic mixer" >
    <i name="AMIX">      0.40000000</i>
    <i name="BMIX">      1.00000000</i>
    <i name="AMIN">      0.10000000</i>
    <i name="AMIX_MAG">      1.60000000</i>
    <i name="BMIX_MAG">      1.00000000</i>
    <separator name="electronic mixer details" >
     <i type="int" name="IMIX">     4</i>
     <i type="logical" name="MIXFIRST"> F  </i>
     <i type="int" name="MAXMIX">   -45</i>
     <i name="WC">    100.00000000</i>
     <i type="int" name="INIMIX">     1</i>
     <i type="int" name="MIXPRE">     1</i>
     <i type="int" name="MREMOVE">     5</i>
    </separator>
   </separator>
   <separator name="electronic dipolcorrection" >
    <i type="logical" name="LDIPOL"> F  </i>
    <i type="logical" name="LMONO"> F  </i>
    <i type="int" name="IDIPOL">     0</i>
    <i name="EPSILON">      1.00000000</i>
    <v name="DIPOL">   -100.00000000   -100.00000000   -100.00000000</v>
    <i name="EFIELD">      0.00000000</i>
   </separator>
  </separator>
  <separator name="grids" >
   <i type="int" name="NGX">    20</i>
   <i type="int" name="NGY">    20</i>
   <i type="int" name="NGZ">    20</i>
   <i type="int" name="NGXF">    40</i>
   <i type="int" name="NGYF">    40</i>
   <i type="int" name="NGZF">    40</i>
   <i type="logical" name="ADDGRID"> T  </i>
  </separator>
  <separator name="ionic" >
   <i type="int" name="NSW">     0</i>
   <i type="int" name="IBRION">    -1</i>
   <i type="int" name="MDALGO">     0</i>
   <i type="int" name="ISIF">     2</i>
   <i name="PSTRESS">      0.00000000</i>
   <i name="EDIFFG">     -0.00001000</i>
   <i type="int" name="NFREE">     0</i>
   <i name="POTIM">      0.50000000</i>
   <i name="SMASS">     -3.00000000</i>
   <i name="SCALEE">      1.00000000</i>
  </separator>
  <separator name="ionic md" >
   <i name="TEBEG">      0.00010000</i>
   <i name="TEEND">      0.00010000</i>
   <i type="int" name="NBLOCK">     1</i>
   <i type="int" name="KBLOCK">     1</i>
   <i type="int" name="NPACO">   256</i>
   <i name="APACO">     16.00000000</i>
  </separator>
  <separator name="symmetry" >
   <i type="int" name="ISYM">     2</i>
   <i name="SYMPREC">      0.00001000</i>
  </separator>
  <separator name="dos" >
   <i type="int" name="LORBIT">     0</i>
   <v name="RWIGS">     -1.00000000     -1.00000000</v>
   <i type="int" name="NEDOS">   301</i>
   <i name="EMIN">     10.00000000</i>
   <i name="EMAX">    -10.00000000</i>
   <i name="EFERMI">      0.00000000</i>
  </separator>
  <separator name="writing" >
   <i type="int" name="NWRITE">     2</i>
   <i type="logical" name="LWAVE"> F  </i>
   <i type="logical" name="LDOWNSAMPLE"> F  </i>
   <i type="logical" name="LCHARG"> F  </i>
   <i type="logical" name="LPARD"> F  </i>
   <i type="logical" name="LVTOT"> F  </i>
   <i type="logical" name="LVHAR"> F  </i>
   <i type="logical" name="LELF"> F  </i>
   <i type="logical" name="LOPTICS"> F  </i>
   <v name="STM">      0.00000000      0.00000000      0.00000000      0.00000000      0.00000000      0.00000000      0.00000000</v>
  </separator>
  <separator name="performance" >
   <i type="int" name="NPAR">    32</i>
   <i type="int" name="NSIM">     4</i>
   <i type="int" name="NBLK">    -1</i>
   <i type="logical" name="LPLANE"> F  </i>
   <i type="logical" name="LSCALAPACK"> T  </i>
   <i type="logical" name="LSCAAWARE"> T  </i>
   <i type="logical" name="LSCALU"> F  </i>
   <i type="logical" name="LASYNC"> F  </i>
   <i type="logical" name="LORBITALREAL"> F  </i>
  </separator>
  <separator name="miscellaneous" >
   <i type="int" name="IDIOT">     3</i>
   <i type="int" name="PHON_NSTRUCT">    -1</i>
   <i type="logical" name="LMUSIC"> F  </i>
   <v name="POMASS">     24.30500000     16.00000000</v>
   <v name="DARWINR">      0.00000000      0.00000000</v>
   <v name="DARWINV">      1.00000000      1.00000000</v>
   <i type="logical" name="LCORR"> T  </i>
  </separator>
  <i type="logical" name="GGA_COMPAT"> T  </i>
  <i type="logical" name="LBERRY"> F  </i>
  <i type="int" name="ICORELEVEL">     0</i>
  <i type="logical" name="LDAU"> F  </i>
  <i type="int" name="I_CONSTRAINED_M">     0</i>
  <separator name="electronic exchange-correlation" >
   <i type="string" name="GGA">PS</i>
   <i type="int" name="VOSKOWN">     0</i>
   <i type="logical" name="LHFCALC"> F  </i>
   <i type="string" name="PRECFOCK"></i>
   <i type="logical" name="LSYMGRAD"> F  </i>
   <i type="logical" name="LHFONE"> F  </i>
   <i type="logical" name="LRHFCALC"> F  </i>
   <i type="logical" name="LTHOMAS"> F  </i>
   <i type="logical" name="LMODELHF"> F  </i>
   <i type="logical" name="LFOCKACE"> F  </i>
   <i name="ENCUT4O">     -1.00000000</i>
   <i type="int" name="EXXOEP">     0</i>
   <i type="int" name="FOURORBIT">     0</i>
   <i name="AEXX">      0.00000000</i>
   <i name="HFALPHA">      0.00000000</i>
   <i name="MCALPHA">      0.00000000</i>
   <i name="ALDAX">      1.00000000</i>
   <i name="AGGAX">      1.00000000</i>
   <i name="ALDAC">      1.00000000</i>
   <i name="AGGAC">      1.00000000</i>
   <i type="int" name="NKREDX">     1</i>
   <i type="int" name="NKREDY">     1</i>
   <i type="int" name="NKREDZ">     1</i>
   <i type="logical" name="SHIFTRED"> F  </i>
   <i type="logical" name="ODDONLY"> F  </i>
   <i type="logical" name="EVENONLY"> F  </i>
   <i type="int" name="LMAXFOCK">     0</i>
   <i type="int" name="NMAXFOCKAE">     0</i>
   <i type="logical" name="LFOCKAEDFT"> F  </i>
   <i name="HFSCREEN">      0.00000000</i>
   <i name="HFSCREENC">      0.00000000</i>
   <i type="int" name="NBANDSGWLOW">     0</i>
  </separator>
  <separator name="vdW DFT" >
   <i type="logical" name="LUSE_VDW"> F  </i>
   <i name="Zab_VDW">     -0.84910000</i>
   <i name="PARAM1">      0.12340000</i>
   <i name="PARAM2">      1.00000000</i>
   <i name="PARAM3">      0.00000000</i>
  </separator>
  <separator name="model GW" >
   <i type="int" name="MODEL_GW">     0</i>
   <i name="MODEL_EPS0">      5.65946677</i>
   <i name="MODEL_ALPHA">      1.00000000</i>
  </separator>
  <separator name="linear response parameters" >
   <i type="logical" name="LEPSILON"> T  </i>
   <i type="logical" name="LRPA"> F  </i>
   <i type="logical" name="LNABLA"> F  </i>
   <i type="logical" name="LVEL"> F  </i>
   <i type="int" name="KINTER">     0</i>
   <i name="CSHIFT">      0.10000000</i>
   <i name="OMEGAMAX">     -1.00000000</i>
   <i name="DEG_THRESHOLD">      0.00200000</i>
   <i name="RTIME">     -0.10000000</i>
   <i name="WPLASMAI">      0.00000000</i>
   <v name="DFIELD">      0.00000000      0.00000000      0.00000000</v>
   <v name="WPLASMA">      0.00000000      0.00000000      0.00000000      0.00000000      0.00000000      0.00000000      0.00000000      0.00000000      0.00000000</v>
  </separator>
  <separator name="orbital magnetization" >
   <i type="logical" name="NUCIND"> F  </i>
   <v name="MAGPOS">      0.00000000      0.00000000      0.00000000</v>
   <i type="logical" name="LNICSALL"> T  </i>
   <i type="logical" name="ORBITALMAG"> F  </i>
   <i type="logical" name="LMAGBLOCH"> F  </i>
   <i type="logical" name="LCHIMAG"> F  </i>
   <i type="logical" name="LGAUGE"> T  </i>
   <i type="int" name="MAGATOM">     0</i>
   <v name="MAGDIPOL">      0.00000000      0.00000000      0.00000000</v>
   <v name="AVECCONST">      0.00000000      0.00000000      0.00000000</v>
  </separator>
  <separator name="response functions" >
   <i type="logical" name="LFINITE_TEMPERATURE"> F  </i>
   <i type="logical" name="LADDER"> F  </i>
   <i type="logical" name="LRPAFORCE"> F  </i>
   <i type="logical" name="LFXC"> F  </i>
   <i type="logical" name="LHARTREE"> T  </i>
   <i type="int" name="IBSE">     0</i>
   <v type="int" name="KPOINT">    -1     0     0     0</v>
   <i type="logical" name="LTCTC"> F  </i>
   <i type="logical" name="LTCTE"> F  </i>
   <i type="logical" name="LTETE"> F  </i>
   <i type="logical" name="LTRIPLET"> F  </i>
   <i type="logical" name="LFXCEPS"> F  </i>
   <i type="logical" name="LFXHEG"> F  </i>
   <i type="int" name="NATURALO">     2</i>
   <i type="logical" name="LHOLEGF"> F  </i>
   <i type="logical" name="L2ORDER"> F  </i>
   <i type="logical" name="LDMP1"> F  </i>
   <i type="logical" name="LMP2LT"> F  </i>
   <i type="logical" name="LSMP2LT"> F  </i>
   <i type="logical" name="LGWLF"> F  </i>
   <i name="ENCUTGW">     -2.00000000</i>
   <i name="ENCUTGWSOFT">     -2.00000000</i>
   <i name="ENCUTLF">     -1.00000000</i>
   <i type="logical" name="LESF_SPLINES"> F  </i>
   <i type="int" name="LMAXMP2">    -1</i>
   <i name="SCISSOR">      0.00000000</i>
   <i type="int" name="NOMEGA">     0</i>
   <i type="int" name="NOMEGAR">     0</i>
   <i type="int" name="NBANDSGW">    -1</i>
   <i type="int" name="NBANDSO">    -1</i>
   <i type="int" name="NBANDSV">    -1</i>
   <i type="int" name="NELM">   100</i>
   <i type="int" name="NELMHF">     1</i>
   <i type="int" name="DIM">     3</i>
   <i type="int" name="IESPILON">     4</i>
   <i type="int" name="ANTIRES">     0</i>
   <i name="OMEGAMAX">    -30.00000000</i>
   <i name="OMEGAMIN">    -30.00000000</i>
   <i name="OMEGATL">   -200.00000000</i>
   <i type="int" name="OMEGAGRID">     0</i>
   <i name="CSHIFT">     -0.10000000</i>
   <i type="logical" name="LSELFENERGY"> F  </i>
   <i type="logical" name="LSPECTRAL"> F  </i>
   <i type="logical" name="LSPECTRALGW"> F  </i>
   <i type="logical" name="LSINGLES"> F  </i>
   <i type="logical" name="LFERMIGW"> F  </i>
   <i type="logical" name="ODDONLYGW"> F  </i>
   <i type="logical" name="EVENONLYGW"> F  </i>
   <i type="int" name="NKREDLFX">     1</i>
   <i type="int" name="NKREDLFY">     1</i>
   <i type="int" name="NKREDLFZ">     1</i>
   <i type="int" name="MAXMEM">  2800</i>
   <i type="int" name="TELESCOPE">     0</i>
   <i type="int" name="NTAUPAR">    -1</i>
   <i type="int" name="NOMEGAPAR">    -1</i>
   <i name="DAMP_NEWTON">      0.80000001</i>
   <i name="LAMBDA">      1.00000000</i>
  </separator>
  <separator name="External order field" >
   <i name="OFIELD_KAPPA">      0.00000000</i>
   <v name="OFIELD_K">      0.00000000      0.00000000      0.00000000</v>
   <i name="OFIELD_Q6_NEAR">      0.00000000</i>
   <i name="OFIELD_Q6_FAR">      0.00000000</i>
   <i name="OFIELD_A">      0.00000000</i>
  </separator>
 </parameters>
 <atominfo>
  <atoms>       2 </atoms>
  <types>       2 </types>
  <array name="atoms" >
   <dimension dim="1">ion</dimension>
   <field type="string">element</field>
   <field type="int">atomtype</field>
   <set>
    <rc><c>Mg</c><c>   1</c></rc>
    <rc><c>O </c><c>   2</c></rc>
   </set>
  </array>
  <array name="atomtypes" >
   <dimension dim="1">type</dimension>
   <field type="int">atomspertype</field>
   <field type="string">element</field>
   <field>mass</field>
   <field>valence</field>
   <field type="string">pseudopotential</field>
   <set>
    <rc><c>   1</c><c>Mg</c><c>     24.30500000</c><c>      2.00000000</c><c>  PAW_PBE Mg 13Apr2007                  </c></rc>
    <rc><c>   1</c><c>O </c><c>     16.00000000</c><c>      6.00000000</c><c>  PAW_PBE O 08Apr2002                   </c></rc>
   </set>
  </array>
 </atominfo>
 <structure name="initialpos" >
  <crystal>
   <varray name="basis" >
    <v>       0.00000000       2.11287962       2.11287962 </v>
    <v>       2.11287962       0.00000000       2.11287962 </v>
    <v>       2.11287962       2.11287962       0.00000000 </v>
   </varray>
   <i name="volume">     18.86488924 </i>
   <varray name="rec_basis" >
    <v>      -0.23664386       0.23664386       0.23664386 </v>
    <v>       0.23664386      -0.23664386       0.23664386 </v>
    <v>       0.23664386       0.23664386      -0.23664386 </v>
   </varray>
  </crystal>
  <varray name="positions" >
   <v>       0.50000000       0.50000000       0.50000000 </v>
   <v>       0.00000000       0.00000000       0.00000000 </v>
  </varray>
 </structure>
 <calculation>
  <scstep>
   <time name="dav">    3.16    3.18</time>
   <time name="total">    3.17    3.19</time>
   <energy>
    <i name="alphaZ">     19.36377380 </i>
    <i name="ewald">   -357.03023786 </i>
    <i name="hartreedc">   -121.61169074 </i>
    <i name="XCdc">    -18.91983816 </i>
    <i name="pawpsdc">    410.34041496 </i>
    <i name="pawaedc">   -360.87495974 </i>
    <i name="eentropy">     -0.00000000 </i>
    <i name="bandstr">    -36.64274383 </i>
    <i name="atom">    453.31990516 </i>
    <i name="e_fr_energy">    -12.05537640 </i>
    <i name="e_wo_entrp">    -12.05537640 </i>
    <i name="e_0_energy">    -12.05537640 </i>
   </energy>
  </scstep>
  <scstep>
   <time name="dav">    3.21    3.22</time>
   <time name="total">    3.21    3.22</time>
   <energy>
    <i name="e_fr_energy">    -13.88334426 </i>
    <i name="e_wo_entrp">    -13.88334426 </i>
    <i name="e_0_energy">    -13.88334426 </i>
   </energy>
  </scstep>
  <scstep>
   <time name="dav">    3.80    3.81</time>
   <time name="total">    3.80    3.81</time>
   <energy>
    <i name="e_fr_energy">    -13.88369367 </i>
    <i name="e_wo_entrp">    -13.88369367 </i>
    <i name="e_0_energy">    -13.88369367 </i>
   </energy>
  </scstep>
  <scstep>
   <time name="dav">    4.39    4.41</time>
   <time name="total">    4.39    4.41</time>
   <energy>
    <i name="e_fr_energy">    -13.88369369 </i>
    <i name="e_wo_entrp">    -13.88369369 </i>
    <i name="e_0_energy">    -13.88369369 </i>
   </energy>
  </scstep>
  <scstep>
   <time name="dav">    3.77    3.78</time>
   <time name="total">    3.82    3.83</time>
   <energy>
    <i name="e_fr_energy">    -13.88369369 </i>
    <i name="e_wo_entrp">    -13.88369369 </i>
    <i name="e_0_energy">    -13.88369369 </i>
   </energy>
  </scstep>
  <scstep>
   <time name="dav">    2.80    2.82</time>
   <time name="total">    2.87    2.88</time>
   <energy>
    <i name="e_fr_energy">    -12.57334249 </i>
    <i name="e_wo_entrp">    -12.57334249 </i>
    <i name="e_0_energy">    -12.57334249 </i>
   </energy>
  </scstep>
  <scstep>
   <time name="dav">    4.22    4.23</time>
   <time name="total">    4.28    4.29</time>
   <energy>
    <i name="e_fr_energy">    -12.54379290 </i>
    <i name="e_wo_entrp">    -12.54379290 </i>
    <i name="e_0_energy">    -12.54379290 </i>
   </energy>
  </scstep>
  <scstep>
   <time name="dav">    5.07    5.08</time>
   <time name="total">    5.12    5.13</time>
   <energy>
    <i name="e_fr_energy">    -12.52939357 </i>
    <i name="e_wo_entrp">    -12.52939357 </i>
    <i name="e_0_energy">    -12.52939357 </i>
   </energy>
  </scstep>
  <scstep>
   <time name="dav">    2.63    2.64</time>
   <time name="total">    2.68    2.70</time>
   <energy>
    <i name="e_fr_energy">    -12.52950298 </i>
    <i name="e_wo_entrp">    -12.52950298 </i>
    <i name="e_0_energy">    -12.52950298 </i>
   </energy>
  </scstep>
  <scstep>
   <time name="dav">    4.67    4.69</time>
   <time name="total">    4.73    4.74</time>
   <energy>
    <i name="e_fr_energy">    -12.52947967 </i>
    <i name="e_wo_entrp">    -12.52947967 </i>
    <i name="e_0_energy">    -12.52947967 </i>
   </energy>
  </scstep>
  <scstep>
   <time name="dav">    3.17    3.29</time>
   <time name="total">    3.23    3.35</time>
   <energy>
    <i name="e_fr_energy">    -12.52947909 </i>
    <i name="e_wo_entrp">    -12.52947909 </i>
    <i name="e_0_energy">    -12.52947909 </i>
   </energy>
  </scstep>
  <scstep>
   <time name="dav">    4.20    4.21</time>
   <time name="total">    4.25    4.27</time>
   <energy>
    <i name="e_fr_energy">    -12.52947897 </i>
    <i name="e_wo_entrp">    -12.52947897 </i>
    <i name="e_0_energy">    -12.52947897 </i>
   </energy>
  </scstep>
  <scstep>
   <time name="dav">    1.36    1.36</time>
   <time name="total">    1.41    1.41</time>
   <energy>
    <i name="e_fr_energy">    -12.52947896 </i>
    <i name="e_wo_entrp">    -12.52947896 </i>
    <i name="e_0_energy">    -12.52947896 </i>
   </energy>
  </scstep>
  <scstep>
   <time name="dav">    1.05    1.05</time>
   <time name="total">    1.05    1.06</time>
   <energy>
    <i name="alphaZ">     19.36377380 </i>
    <i name="ewald">   -357.03023786 </i>
    <i name="hartreedc">   -140.01872887 </i>
    <i name="XCdc">    -17.49161483 </i>
    <i name="pawpsdc">    552.98821092 </i>
    <i name="pawaedc">   -503.78206456 </i>
    <i name="eentropy">     -0.00000000 </i>
    <i name="bandstr">    -19.87872273 </i>
    <i name="atom">    453.31990516 </i>
    <i name="e_fr_energy">    -12.52947896 </i>
    <i name="e_wo_entrp">    -12.52947896 </i>
    <i name="e_0_energy">    -12.52947896 </i>
   </energy>
  </scstep>
  <structure>
   <crystal>
    <varray name="basis" >
     <v>       0.00000000       2.11287962       2.11287962 </v>
     <v>       2.11287962       0.00000000       2.11287962 </v>
     <v>       2.11287962       2.11287962       0.00000000 </v>
    </varray>
    <i name="volume">     18.86488924 </i>
    <varray name="rec_basis" >
     <v>      -0.23664386       0.23664386       0.23664386 </v>
     <v>       0.23664386      -0.23664386       0.23664386 </v>
     <v>       0.23664386       0.23664386      -0.23664386 </v>
    </varray>
   </crystal>
   <varray name="positions" >
    <v>       0.50000000       0.50000000       0.50000000 </v>
    <v>       0.00000000       0.00000000       0.00000000 </v>
   </varray>
  </structure>
  <varray name="forces" >
   <v>       0.00000000      -0.00000000       0.00000000 </v>
   <v>      -0.00000000       0.00000000      -0.00000000 </v>
  </varray>
  <varray name="stress" >
   <v>     -70.57328667      -0.00000000      -0.00000000 </v>
   <v>      -0.00000000     -70.57328667      -0.00000000 </v>
   <v>       0.00000000       0.00000000     -70.57328667 </v>
  </varray>
  <energy>
   <i name="e_fr_energy">    -12.52947896 </i>
   <i name="e_wo_entrp">    -12.52947896 </i>
   <i name="e_0_energy">    -12.52947896 </i>
  </energy>
  <scstep>
   <time name="total">    0.91    0.91</time>
   <energy>
    <i name="e_fr_energy">    -31.94058581 </i>
    <i name="e_wo_entrp">    -31.94058581 </i>
    <i name="e_0_energy">    -31.94058581 </i>
   </energy>
  </scstep>
  <scstep>
   <time name="total">    0.82    0.83</time>
   <energy>
    <i name="e_fr_energy">    -30.26938486 </i>
    <i name="e_wo_entrp">    -30.26938486 </i>
    <i name="e_0_energy">    -30.26938486 </i>
   </energy>
  </scstep>
  <scstep>
   <time name="total">    0.86    0.86</time>
   <energy>
    <i name="e_fr_energy">    -30.26995404 </i>
    <i name="e_wo_entrp">    -30.26995404 </i>
    <i name="e_0_energy">    -30.26995404 </i>
   </energy>
  </scstep>
  <scstep>
   <time name="total">    0.75    0.76</time>
   <energy>
    <i name="e_fr_energy">    -30.26995447 </i>
    <i name="e_wo_entrp">    -30.26995447 </i>
    <i name="e_0_energy">    -30.26995447 </i>
   </energy>
  </scstep>
  <scstep>
   <time name="total">    0.75    0.76</time>
   <energy>
    <i name="e_fr_energy">    -30.26995448 </i>
    <i name="e_wo_entrp">    -30.26995448 </i>
    <i name="e_0_energy">    -30.26995448 </i>
   </energy>
  </scstep>
  <scstep>
   <time name="total">    0.76    0.76</time>
   <energy>
    <i name="e_fr_energy">    -30.26995448 </i>
    <i name="e_wo_entrp">    -30.26995448 </i>
    <i name="e_0_energy">    -30.26995448 </i>
   </energy>
  </scstep>
  <scstep>
   <time name="total">    0.89    0.89</time>
   <energy>
    <i name="e_fr_energy">    -30.65438352 </i>
    <i name="e_wo_entrp">    -30.65438352 </i>
    <i name="e_0_energy">    -30.65438352 </i>
   </energy>
  </scstep>
  <scstep>
   <time name="total">    0.87    0.87</time>
   <energy>
    <i name="e_fr_energy">    -30.19388005 </i>
    <i name="e_wo_entrp">    -30.19388005 </i>
    <i name="e_0_energy">    -30.19388005 </i>
   </energy>
  </scstep>
  <scstep>
   <time name="total">    0.86    0.86</time>
   <energy>
    <i name="e_fr_energy">    -30.19463300 </i>
    <i name="e_wo_entrp">    -30.19463300 </i>
    <i name="e_0_energy">    -30.19463300 </i>
   </energy>
  </scstep>
  <scstep>
   <time name="total">    0.75    0.76</time>
   <energy>
    <i name="e_fr_energy">    -30.19463372 </i>
    <i name="e_wo_entrp">    -30.19463372 </i>
    <i name="e_0_energy">    -30.19463372 </i>
   </energy>
  </scstep>
  <scstep>
   <time name="total">    0.75    0.76</time>
   <energy>
    <i name="e_fr_energy">    -30.19463373 </i>
    <i name="e_wo_entrp">    -30.19463373 </i>
    <i name="e_0_energy">    -30.19463373 </i>
   </energy>
  </scstep>
  <scstep>
   <time name="total">    0.76    0.76</time>
   <energy>
    <i name="e_fr_energy">    -30.19463373 </i>
    <i name="e_wo_entrp">    -30.19463373 </i>
    <i name="e_0_energy">    -30.19463373 </i>
   </energy>
  </scstep>
  <scstep>
   <time name="total">    0.90    0.90</time>
   <energy>
    <i name="e_fr_energy">    -27.12999958 </i>
    <i name="e_wo_entrp">    -27.12999958 </i>
    <i name="e_0_energy">    -27.12999958 </i>
   </energy>
  </scstep>
  <scstep>
   <time name="total">    0.81    0.81</time>
   <energy>
    <i name="e_fr_energy">    -25.72706223 </i>
    <i name="e_wo_entrp">    -25.72706223 </i>
    <i name="e_0_energy">    -25.72706223 </i>
   </energy>
  </scstep>
  <scstep>
   <time name="total">    0.85    0.86</time>
   <energy>
    <i name="e_fr_energy">    -25.72728031 </i>
    <i name="e_wo_entrp">    -25.72728031 </i>
    <i name="e_0_energy">    -25.72728031 </i>
   </energy>
  </scstep>
  <scstep>
   <time name="total">    0.75    0.75</time>
   <energy>
    <i name="e_fr_energy">    -25.72727984 </i>
    <i name="e_wo_entrp">    -25.72727984 </i>
    <i name="e_0_energy">    -25.72727984 </i>
   </energy>
  </scstep>
  <scstep>
   <time name="total">    0.75    0.75</time>
   <energy>
    <i name="e_fr_energy">    -25.72727985 </i>
    <i name="e_wo_entrp">    -25.72727985 </i>
    <i name="e_0_energy">    -25.72727985 </i>
   </energy>
  </scstep>
  <scstep>
   <time name="total">    1.04    1.04</time>
   <energy>
    <i name="e_fr_energy">     -0.13275876 </i>
    <i name="e_wo_entrp">     -0.13275876 </i>
    <i name="e_0_energy">     -0.13275876 </i>
   </energy>
  </scstep>
  <scstep>
   <time name="total">    0.96    0.96</time>
   <energy>
    <i name="e_fr_energy">     -0.13321697 </i>
    <i name="e_wo_entrp">     -0.13321697 </i>
    <i name="e_0_energy">     -0.13321697 </i>
   </energy>
  </scstep>
  <scstep>
   <time name="total">    0.98    0.99</time>
   <energy>
    <i name="e_fr_energy">     -0.13321787 </i>
    <i name="e_wo_entrp">     -0.13321787 </i>
    <i name="e_0_energy">     -0.13321787 </i>
   </energy>
  </scstep>
  <scstep>
   <time name="total">    0.99    0.99</time>
   <energy>
    <i name="e_fr_energy">     -0.13321787 </i>
    <i name="e_wo_entrp">     -0.13321787 </i>
    <i name="e_0_energy">     -0.13321787 </i>
   </energy>
  </scstep>
  <scstep>
   <time name="total">    1.03    1.03</time>
   <energy>
    <i name="e_fr_energy">     -0.13623776 </i>
    <i name="e_wo_entrp">     -0.13623776 </i>
    <i name="e_0_energy">     -0.13623776 </i>
   </energy>
  </scstep>
  <scstep>
   <time name="total">    0.96    0.96</time>
   <energy>
    <i name="e_fr_energy">     -0.13664355 </i>
    <i name="e_wo_entrp">     -0.13664355 </i>
    <i name="e_0_energy">     -0.13664355 </i>
   </energy>
  </scstep>
  <scstep>
   <time name="total">    0.98    0.98</time>
   <energy>
    <i name="e_fr_energy">     -0.13664463 </i>
    <i name="e_wo_entrp">     -0.13664463 </i>
    <i name="e_0_energy">     -0.13664463 </i>
   </energy>
  </scstep>
  <scstep>
   <time name="total">    0.99    0.99</time>
   <energy>
    <i name="e_fr_energy">     -0.13664463 </i>
    <i name="e_wo_entrp">     -0.13664463 </i>
    <i name="e_0_energy">     -0.13664463 </i>
   </energy>
  </scstep>
  <scstep>
   <time name="total">    1.03    1.03</time>
   <energy>
    <i name="e_fr_energy">     -0.08276591 </i>
    <i name="e_wo_entrp">     -0.08276591 </i>
    <i name="e_0_energy">     -0.08276591 </i>
   </energy>
  </scstep>
  <scstep>
   <time name="total">    0.95    0.96</time>
   <energy>
    <i name="e_fr_energy">     -0.08336268 </i>
    <i name="e_wo_entrp">     -0.08336268 </i>
    <i name="e_0_energy">     -0.08336268 </i>
   </energy>
  </scstep>
  <scstep>
   <time name="total">    0.97    0.97</time>
   <energy>
    <i name="e_fr_energy">     -0.08336306 </i>
    <i name="e_wo_entrp">     -0.08336306 </i>
    <i name="e_0_energy">     -0.08336306 </i>
   </energy>
  </scstep>
  <scstep>
   <time name="total">    0.98    0.99</time>
   <energy>
    <i name="e_fr_energy">     -0.08336306 </i>
    <i name="e_wo_entrp">     -0.08336306 </i>
    <i name="e_0_energy">     -0.08336306 </i>
   </energy>
  </scstep>
  <varray name="dielectric_ipa" >
   <v>       3.25877272       0.00000000      -0.00000000 </v>
   <v>       0.00000000       3.25877272       0.00000000 </v>
   <v>      -0.00000000      -0.00000000       3.25877272 </v>
  </varray>
  <kpoints>
   <generation param="Monkhorst-Pack">
    <v type="int" name="divisions">      21       21       21 </v>
    <v name="usershift">      0.00000000       0.00000000       0.00000000 </v>
    <v name="genvec1">      0.04761905      -0.00000000       0.00000000 </v>
    <v name="genvec2">     -0.00000000       0.04761905      -0.00000000 </v>
    <v name="genvec3">      0.00000000       0.00000000       0.04761905 </v>
    <v name="shift">      0.00000000       0.00000000       0.00000000 </v>
   </generation>
   <varray name="kpointlist" >
    <v>       0.00000000       0.00000000       0.00000000 </v>
    <v>       0.04761905       0.00000000      -0.00000000 </v>
    <v>       0.09523810      -0.00000000      -0.00000000 </v>
    <v>       0.14285714      -0.00000000      -0.00000000 </v>
    <v>       0.19047619      -0.00000000      -0.00000000 </v>
    <v>       0.23809524      -0.00000000      -0.00000000 </v>
    <v>       0.28571429       0.00000000      -0.00000000 </v>
    <v>       0.33333333       0.00000000      -0.00000000 </v>
    <v>       0.38095238      -0.00000000      -0.00000000 </v>
    <v>       0.42857143       0.00000000      -0.00000000 </v>
    <v>       0.47619048      -0.00000000      -0.00000000 </v>
    <v>       0.04761905       0.04761905      -0.00000000 </v>
    <v>      -0.00000000       0.04761905       0.04761905 </v>
    <v>       0.09523810       0.04761905      -0.00000000 </v>
    <v>      -0.00000000       0.09523810       0.04761905 </v>
    <v>       0.14285714       0.04761905      -0.00000000 </v>
    <v>      -0.00000000       0.14285714       0.04761905 </v>
    <v>       0.19047619       0.04761905      -0.00000000 </v>
    <v>       0.00000000       0.19047619       0.04761905 </v>
    <v>       0.23809524       0.04761905      -0.00000000 </v>
    <v>      -0.00000000       0.23809524       0.04761905 </v>
    <v>       0.28571429       0.04761905       0.00000000 </v>
    <v>      -0.00000000       0.28571429       0.04761905 </v>
    <v>       0.33333333       0.04761905      -0.00000000 </v>
    <v>       0.00000000       0.33333333       0.04761905 </v>
    <v>       0.38095238       0.04761905       0.00000000 </v>
    <v>      -0.00000000       0.38095238       0.04761905 </v>
    <v>       0.42857143       0.04761905       0.00000000 </v>
    <v>      -0.00000000       0.42857143       0.04761905 </v>
    <v>       0.47619048       0.04761905      -0.00000000 </v>
    <v>      -0.00000000       0.47619048       0.04761905 </v>
    <v>      -0.47619048       0.04761905       0.00000000 </v>
    <v>       0.00000000      -0.47619048       0.04761905 </v>
    <v>      -0.42857143       0.04761905      -0.00000000 </v>
    <v>      -0.00000000      -0.42857143       0.04761905 </v>
    <v>      -0.38095238       0.04761905       0.00000000 </v>
    <v>      -0.00000000      -0.38095238       0.04761905 </v>
    <v>      -0.33333333       0.04761905      -0.00000000 </v>
    <v>       0.00000000      -0.33333333       0.04761905 </v>
    <v>      -0.28571429       0.04761905       0.00000000 </v>
    <v>      -0.00000000      -0.28571429       0.04761905 </v>
    <v>      -0.23809524       0.04761905       0.00000000 </v>
    <v>      -0.00000000      -0.23809524       0.04761905 </v>
    <v>      -0.19047619       0.04761905       0.00000000 </v>
    <v>      -0.00000000      -0.19047619       0.04761905 </v>
    <v>      -0.14285714       0.04761905      -0.00000000 </v>
    <v>       0.00000000      -0.14285714       0.04761905 </v>
    <v>      -0.09523810       0.04761905       0.00000000 </v>
    <v>      -0.00000000      -0.09523810       0.04761905 </v>
    <v>      -0.04761905       0.04761905       0.00000000 </v>
    <v>      -0.00000000      -0.04761905       0.04761905 </v>
    <v>       0.09523810       0.09523810      -0.00000000 </v>
    <v>      -0.00000000       0.09523810       0.09523810 </v>
    <v>       0.14285714       0.09523810      -0.00000000 </v>
    <v>      -0.00000000       0.14285714       0.09523810 </v>
    <v>       0.19047619       0.09523810      -0.00000000 </v>
    <v>      -0.00000000       0.19047619       0.09523810 </v>
    <v>       0.23809524       0.09523810      -0.00000000 </v>
    <v>       0.00000000       0.23809524       0.09523810 </v>
    <v>       0.28571429       0.09523810      -0.00000000 </v>
    <v>      -0.00000000       0.28571429       0.09523810 </v>
    <v>       0.33333333       0.09523810      -0.00000000 </v>
    <v>       0.00000000       0.33333333       0.09523810 </v>
    <v>       0.38095238       0.09523810      -0.00000000 </v>
    <v>       0.00000000       0.38095238       0.09523810 </v>
    <v>       0.42857143       0.09523810      -0.00000000 </v>
    <v>       0.00000000       0.42857143       0.09523810 </v>
    <v>       0.47619048       0.09523810      -0.00000000 </v>
    <v>      -0.00000000       0.47619048       0.09523810 </v>
    <v>      -0.47619048       0.09523810       0.00000000 </v>
    <v>      -0.00000000      -0.47619048       0.09523810 </v>
    <v>      -0.42857143       0.09523810      -0.00000000 </v>
    <v>      -0.00000000      -0.42857143       0.09523810 </v>
    <v>      -0.38095238       0.09523810      -0.00000000 </v>
    <v>       0.00000000      -0.38095238       0.09523810 </v>
    <v>      -0.33333333       0.09523810       0.00000000 </v>
    <v>      -0.00000000      -0.33333333       0.09523810 </v>
    <v>      -0.28571429       0.09523810      -0.00000000 </v>
    <v>       0.00000000      -0.28571429       0.09523810 </v>
    <v>      -0.23809524       0.09523810       0.00000000 </v>
    <v>      -0.00000000      -0.23809524       0.09523810 </v>
    <v>      -0.19047619       0.09523810       0.00000000 </v>
    <v>      -0.00000000      -0.19047619       0.09523810 </v>
    <v>      -0.14285714       0.09523810       0.00000000 </v>
    <v>      -0.00000000      -0.14285714       0.09523810 </v>
    <v>      -0.09523810       0.09523810      -0.00000000 </v>
    <v>       0.00000000      -0.09523810       0.09523810 </v>
    <v>       0.14285714       0.14285714      -0.00000000 </v>
    <v>      -0.00000000       0.14285714       0.14285714 </v>
    <v>       0.19047619       0.14285714      -0.00000000 </v>
    <v>      -0.00000000       0.19047619       0.14285714 </v>
    <v>       0.23809524       0.14285714      -0.00000000 </v>
    <v>      -0.00000000       0.23809524       0.14285714 </v>
    <v>       0.28571429       0.14285714      -0.00000000 </v>
    <v>       0.00000000       0.28571429       0.14285714 </v>
    <v>       0.33333333       0.14285714      -0.00000000 </v>
    <v>      -0.00000000       0.33333333       0.14285714 </v>
    <v>       0.38095238       0.14285714       0.00000000 </v>
    <v>      -0.00000000       0.38095238       0.14285714 </v>
    <v>       0.42857143       0.14285714      -0.00000000 </v>
    <v>       0.00000000       0.42857143       0.14285714 </v>
    <v>       0.47619048       0.14285714       0.00000000 </v>
    <v>      -0.00000000       0.47619048       0.14285714 </v>
    <v>      -0.47619048       0.14285714      -0.00000000 </v>
    <v>       0.00000000      -0.47619048       0.14285714 </v>
    <v>      -0.42857143       0.14285714      -0.00000000 </v>
    <v>       0.00000000      -0.42857143       0.14285714 </v>
    <v>      -0.38095238       0.14285714       0.00000000 </v>
    <v>       0.00000000      -0.38095238       0.14285714 </v>
    <v>      -0.33333333       0.14285714       0.00000000 </v>
    <v>      -0.00000000      -0.33333333       0.14285714 </v>
    <v>      -0.28571429       0.14285714       0.00000000 </v>
    <v>      -0.00000000      -0.28571429       0.14285714 </v>
    <v>      -0.23809524       0.14285714      -0.00000000 </v>
    <v>       0.00000000      -0.23809524       0.14285714 </v>
    <v>      -0.19047619       0.14285714       0.00000000 </v>
    <v>      -0.00000000      -0.19047619       0.14285714 </v>
    <v>      -0.14285714       0.14285714      -0.00000000 </v>
    <v>       0.00000000      -0.14285714       0.14285714 </v>
    <v>       0.19047619       0.19047619      -0.00000000 </v>
    <v>      -0.00000000       0.19047619       0.19047619 </v>
    <v>       0.23809524       0.19047619      -0.00000000 </v>
    <v>      -0.00000000       0.23809524       0.19047619 </v>
    <v>       0.28571429       0.19047619      -0.00000000 </v>
    <v>      -0.00000000       0.28571429       0.19047619 </v>
    <v>       0.33333333       0.19047619      -0.00000000 </v>
    <v>      -0.00000000       0.33333333       0.19047619 </v>
    <v>       0.38095238       0.19047619      -0.00000000 </v>
    <v>      -0.00000000       0.38095238       0.19047619 </v>
    <v>       0.42857143       0.19047619      -0.00000000 </v>
    <v>       0.00000000       0.42857143       0.19047619 </v>
    <v>       0.47619048       0.19047619      -0.00000000 </v>
    <v>       0.00000000       0.47619048       0.19047619 </v>
    <v>      -0.47619048       0.19047619       0.00000000 </v>
    <v>       0.00000000      -0.47619048       0.19047619 </v>
    <v>      -0.42857143       0.19047619      -0.00000000 </v>
    <v>       0.00000000      -0.42857143       0.19047619 </v>
    <v>      -0.38095238       0.19047619       0.00000000 </v>
    <v>      -0.00000000      -0.38095238       0.19047619 </v>
    <v>      -0.33333333       0.19047619       0.00000000 </v>
    <v>      -0.00000000      -0.33333333       0.19047619 </v>
    <v>      -0.28571429       0.19047619      -0.00000000 </v>
    <v>       0.00000000      -0.28571429       0.19047619 </v>
    <v>      -0.23809524       0.19047619       0.00000000 </v>
    <v>      -0.00000000      -0.23809524       0.19047619 </v>
    <v>      -0.19047619       0.19047619      -0.00000000 </v>
    <v>       0.00000000      -0.19047619       0.19047619 </v>
    <v>       0.23809524       0.23809524      -0.00000000 </v>
    <v>      -0.00000000       0.23809524       0.23809524 </v>
    <v>       0.28571429       0.23809524      -0.00000000 </v>
    <v>      -0.00000000       0.28571429       0.23809524 </v>
    <v>       0.33333333       0.23809524      -0.00000000 </v>
    <v>      -0.00000000       0.33333333       0.23809524 </v>
    <v>       0.38095238       0.23809524      -0.00000000 </v>
    <v>       0.00000000       0.38095238       0.23809524 </v>
    <v>       0.42857143       0.23809524      -0.00000000 </v>
    <v>      -0.00000000       0.42857143       0.23809524 </v>
    <v>       0.47619048       0.23809524      -0.00000000 </v>
    <v>      -0.00000000       0.47619048       0.23809524 </v>
    <v>      -0.47619048       0.23809524      -0.00000000 </v>
    <v>       0.00000000      -0.47619048       0.23809524 </v>
    <v>      -0.42857143       0.23809524       0.00000000 </v>
    <v>      -0.00000000      -0.42857143       0.23809524 </v>
    <v>      -0.38095238       0.23809524      -0.00000000 </v>
    <v>       0.00000000      -0.38095238       0.23809524 </v>
    <v>      -0.33333333       0.23809524      -0.00000000 </v>
    <v>       0.00000000      -0.33333333       0.23809524 </v>
    <v>      -0.28571429       0.23809524       0.00000000 </v>
    <v>      -0.00000000      -0.28571429       0.23809524 </v>
    <v>      -0.23809524       0.23809524       0.00000000 </v>
    <v>      -0.00000000      -0.23809524       0.23809524 </v>
    <v>       0.28571429       0.28571429      -0.00000000 </v>
    <v>      -0.00000000       0.28571429       0.28571429 </v>
    <v>       0.33333333       0.28571429      -0.00000000 </v>
    <v>      -0.00000000       0.33333333       0.28571429 </v>
    <v>       0.38095238       0.28571429      -0.00000000 </v>
    <v>      -0.00000000       0.38095238       0.28571429 </v>
    <v>       0.42857143       0.28571429      -0.00000000 </v>
    <v>      -0.00000000       0.42857143       0.28571429 </v>
    <v>       0.47619048       0.28571429      -0.00000000 </v>
    <v>      -0.00000000       0.47619048       0.28571429 </v>
    <v>      -0.47619048       0.28571429      -0.00000000 </v>
    <v>       0.00000000      -0.47619048       0.28571429 </v>
    <v>      -0.42857143       0.28571429      -0.00000000 </v>
    <v>       0.00000000      -0.42857143       0.28571429 </v>
    <v>      -0.38095238       0.28571429       0.00000000 </v>
    <v>      -0.00000000      -0.38095238       0.28571429 </v>
    <v>      -0.33333333       0.28571429      -0.00000000 </v>
    <v>       0.00000000      -0.33333333       0.28571429 </v>
    <v>      -0.28571429       0.28571429       0.00000000 </v>
    <v>      -0.00000000      -0.28571429       0.28571429 </v>
    <v>       0.33333333       0.33333333      -0.00000000 </v>
    <v>      -0.00000000       0.33333333       0.33333333 </v>
    <v>       0.38095238       0.33333333      -0.00000000 </v>
    <v>      -0.00000000       0.38095238       0.33333333 </v>
    <v>       0.42857143       0.33333333      -0.00000000 </v>
    <v>      -0.00000000       0.42857143       0.33333333 </v>
    <v>       0.47619048       0.33333333      -0.00000000 </v>
    <v>       0.00000000       0.47619048       0.33333333 </v>
    <v>      -0.47619048       0.33333333      -0.00000000 </v>
    <v>       0.00000000      -0.47619048       0.33333333 </v>
    <v>      -0.42857143       0.33333333       0.00000000 </v>
    <v>      -0.00000000      -0.42857143       0.33333333 </v>
    <v>      -0.38095238       0.33333333      -0.00000000 </v>
    <v>       0.00000000      -0.38095238       0.33333333 </v>
    <v>      -0.33333333       0.33333333       0.00000000 </v>
    <v>      -0.00000000      -0.33333333       0.33333333 </v>
    <v>       0.38095238       0.38095238      -0.00000000 </v>
    <v>      -0.00000000       0.38095238       0.38095238 </v>
    <v>       0.42857143       0.38095238      -0.00000000 </v>
    <v>      -0.00000000       0.42857143       0.38095238 </v>
    <v>       0.47619048       0.38095238      -0.00000000 </v>
    <v>      -0.00000000       0.47619048       0.38095238 </v>
    <v>      -0.47619048       0.38095238      -0.00000000 </v>
    <v>       0.00000000      -0.47619048       0.38095238 </v>
    <v>      -0.42857143       0.38095238      -0.00000000 </v>
    <v>      -0.00000000      -0.42857143       0.38095238 </v>
    <v>      -0.38095238       0.38095238      -0.00000000 </v>
    <v>       0.00000000      -0.38095238       0.38095238 </v>
    <v>       0.42857143       0.42857143      -0.00000000 </v>
    <v>      -0.00000000       0.42857143       0.42857143 </v>
    <v>       0.47619048       0.42857143      -0.00000000 </v>
    <v>      -0.00000000       0.47619048       0.42857143 </v>
    <v>      -0.47619048       0.42857143       0.00000000 </v>
    <v>      -0.00000000      -0.47619048       0.42857143 </v>
    <v>      -0.42857143       0.42857143       0.00000000 </v>
    <v>      -0.00000000      -0.42857143       0.42857143 </v>
    <v>       0.47619048       0.47619048      -0.00000000 </v>
    <v>      -0.00000000       0.47619048       0.47619048 </v>
    <v>      -0.47619048       0.47619048      -0.00000000 </v>
    <v>      -0.00000000      -0.47619048       0.47619048 </v>
    <v>       0.14285714       0.09523810       0.04761905 </v>
    <v>       0.04761905       0.14285714       0.09523810 </v>
    <v>       0.09523810       0.04761905       0.14285714 </v>
    <v>       0.19047619       0.09523810       0.04761905 </v>
    <v>       0.04761905       0.19047619       0.09523810 </v>
    <v>       0.09523810       0.04761905       0.19047619 </v>
    <v>       0.23809524       0.09523810       0.04761905 </v>
    <v>       0.04761905       0.23809524       0.09523810 </v>
    <v>       0.09523810       0.04761905       0.23809524 </v>
    <v>       0.28571429       0.09523810       0.04761905 </v>
    <v>       0.04761905       0.28571429       0.09523810 </v>
    <v>       0.09523810       0.04761905       0.28571429 </v>
    <v>       0.33333333       0.09523810       0.04761905 </v>
    <v>       0.04761905       0.33333333       0.09523810 </v>
    <v>       0.09523810       0.04761905       0.33333333 </v>
    <v>       0.38095238       0.09523810       0.04761905 </v>
    <v>       0.04761905       0.38095238       0.09523810 </v>
    <v>       0.09523810       0.04761905       0.38095238 </v>
    <v>       0.42857143       0.09523810       0.04761905 </v>
    <v>       0.04761905       0.42857143       0.09523810 </v>
    <v>       0.09523810       0.04761905       0.42857143 </v>
    <v>       0.47619048       0.09523810       0.04761905 </v>
    <v>       0.04761905       0.47619048       0.09523810 </v>
    <v>       0.09523810       0.04761905       0.47619048 </v>
    <v>      -0.47619048       0.09523810       0.04761905 </v>
    <v>       0.04761905      -0.47619048       0.09523810 </v>
    <v>       0.09523810       0.04761905      -0.47619048 </v>
    <v>       0.19047619       0.14285714       0.04761905 </v>
    <v>       0.04761905       0.19047619       0.14285714 </v>
    <v>       0.14285714       0.04761905       0.19047619 </v>
    <v>       0.23809524       0.14285714       0.04761905 </v>
    <v>       0.04761905       0.23809524       0.14285714 </v>
    <v>       0.14285714       0.04761905       0.23809524 </v>
    <v>       0.28571429       0.14285714       0.04761905 </v>
    <v>       0.04761905       0.28571429       0.14285714 </v>
    <v>       0.14285714       0.04761905       0.28571429 </v>
    <v>       0.33333333       0.14285714       0.04761905 </v>
    <v>       0.04761905       0.33333333       0.14285714 </v>
    <v>       0.14285714       0.04761905       0.33333333 </v>
    <v>       0.38095238       0.14285714       0.04761905 </v>
    <v>       0.04761905       0.38095238       0.14285714 </v>
    <v>       0.14285714       0.04761905       0.38095238 </v>
    <v>       0.42857143       0.14285714       0.04761905 </v>
    <v>       0.04761905       0.42857143       0.14285714 </v>
    <v>       0.14285714       0.04761905       0.42857143 </v>
    <v>       0.47619048       0.14285714       0.04761905 </v>
    <v>       0.04761905       0.47619048       0.14285714 </v>
    <v>       0.14285714       0.04761905       0.47619048 </v>
    <v>      -0.47619048       0.14285714       0.04761905 </v>
    <v>       0.04761905      -0.47619048       0.14285714 </v>
    <v>       0.14285714       0.04761905      -0.47619048 </v>
    <v>      -0.42857143       0.14285714       0.04761905 </v>
    <v>       0.04761905      -0.42857143       0.14285714 </v>
    <v>       0.14285714       0.04761905      -0.42857143 </v>
    <v>      -0.38095238       0.14285714       0.04761905 </v>
    <v>       0.04761905      -0.38095238       0.14285714 </v>
    <v>       0.14285714       0.04761905      -0.38095238 </v>
    <v>      -0.33333333       0.14285714       0.04761905 </v>
    <v>       0.04761905      -0.33333333       0.14285714 </v>
    <v>       0.14285714       0.04761905      -0.33333333 </v>
    <v>      -0.28571429       0.14285714       0.04761905 </v>
    <v>       0.04761905      -0.28571429       0.14285714 </v>
    <v>       0.14285714       0.04761905      -0.28571429 </v>
    <v>      -0.23809524       0.14285714       0.04761905 </v>
    <v>       0.04761905      -0.23809524       0.14285714 </v>
    <v>       0.14285714       0.04761905      -0.23809524 </v>
    <v>      -0.19047619       0.14285714       0.04761905 </v>
    <v>       0.04761905      -0.19047619       0.14285714 </v>
    <v>       0.14285714       0.04761905      -0.19047619 </v>
    <v>      -0.14285714       0.14285714       0.04761905 </v>
    <v>       0.04761905      -0.14285714       0.14285714 </v>
    <v>       0.14285714       0.04761905      -0.14285714 </v>
    <v>      -0.09523810       0.14285714       0.04761905 </v>
    <v>       0.04761905      -0.09523810       0.14285714 </v>
    <v>       0.14285714       0.04761905      -0.09523810 </v>
    <v>       0.23809524       0.19047619       0.04761905 </v>
    <v>       0.04761905       0.23809524       0.19047619 </v>
    <v>       0.19047619       0.04761905       0.23809524 </v>
    <v>       0.28571429       0.19047619       0.04761905 </v>
    <v>       0.04761905       0.28571429       0.19047619 </v>
    <v>       0.19047619       0.04761905       0.28571429 </v>
    <v>       0.33333333       0.19047619       0.04761905 </v>
    <v>       0.04761905       0.33333333       0.19047619 </v>
    <v>       0.19047619       0.04761905       0.33333333 </v>
    <v>       0.38095238       0.19047619       0.04761905 </v>
    <v>       0.04761905       0.38095238       0.19047619 </v>
    <v>       0.19047619       0.04761905       0.38095238 </v>
    <v>       0.42857143       0.19047619       0.04761905 </v>
    <v>       0.04761905       0.42857143       0.19047619 </v>
    <v>       0.19047619       0.04761905       0.42857143 </v>
    <v>       0.47619048       0.19047619       0.04761905 </v>
    <v>       0.04761905       0.47619048       0.19047619 </v>
    <v>       0.19047619       0.04761905       0.47619048 </v>
    <v>      -0.47619048       0.19047619       0.04761905 </v>
    <v>       0.04761905      -0.47619048       0.19047619 </v>
    <v>       0.19047619       0.04761905      -0.47619048 </v>
    <v>      -0.42857143       0.19047619       0.04761905 </v>
    <v>       0.04761905      -0.42857143       0.19047619 </v>
    <v>       0.19047619       0.04761905      -0.42857143 </v>
    <v>      -0.38095238       0.19047619       0.04761905 </v>
    <v>       0.04761905      -0.38095238       0.19047619 </v>
    <v>       0.19047619       0.04761905      -0.38095238 </v>
    <v>      -0.33333333       0.19047619       0.04761905 </v>
    <v>       0.04761905      -0.33333333       0.19047619 </v>
    <v>       0.19047619       0.04761905      -0.33333333 </v>
    <v>      -0.28571429       0.19047619       0.04761905 </v>
    <v>       0.04761905      -0.28571429       0.19047619 </v>
    <v>       0.19047619       0.04761905      -0.28571429 </v>
    <v>      -0.23809524       0.19047619       0.04761905 </v>
    <v>       0.04761905      -0.23809524       0.19047619 </v>
    <v>       0.19047619       0.04761905      -0.23809524 </v>
    <v>      -0.19047619       0.19047619       0.04761905 </v>
    <v>       0.04761905      -0.19047619       0.19047619 </v>
    <v>       0.19047619       0.04761905      -0.19047619 </v>
    <v>      -0.14285714       0.19047619       0.04761905 </v>
    <v>       0.04761905      -0.14285714       0.19047619 </v>
    <v>       0.19047619       0.04761905      -0.14285714 </v>
    <v>       0.28571429       0.23809524       0.04761905 </v>
    <v>       0.04761905       0.28571429       0.23809524 </v>
    <v>       0.23809524       0.04761905       0.28571429 </v>
    <v>       0.33333333       0.23809524       0.04761905 </v>
[...]
       <r>   52.3509    0.0000 </r>
       <r>   53.0553    0.0000 </r>
       <r>   55.2005    0.0000 </r>
       <r>   55.3075    0.0000 </r>
       <r>   55.9252    0.0000 </r>
       <r>   59.4616    0.0000 </r>
       <r>   59.8444    0.0000 </r>
       <r>   61.0029    0.0000 </r>
       <r>   61.3407    0.0000 </r>
      </set>
      <set comment="kpoint 284">
       <r>  -12.5802    1.0000 </r>
       <r>   -0.4482    1.0000 </r>
       <r>    0.5325    1.0000 </r>
       <r>    1.2847    1.0000 </r>
       <r>   13.6772    0.0000 </r>
       <r>   14.4865    0.0000 </r>
       <r>   15.0852    0.0000 </r>
       <r>   18.8566    0.0000 </r>
       <r>   23.3163    0.0000 </r>
       <r>   26.4339    0.0000 </r>
       <r>   29.1037    0.0000 </r>
       <r>   31.3774    0.0000 </r>
       <r>   34.1126    0.0000 </r>
       <r>   37.3727    0.0000 </r>
       <r>   39.3227    0.0000 </r>
       <r>   41.2932    0.0000 </r>
       <r>   42.0893    0.0000 </r>
       <r>   42.9868    0.0000 </r>
       <r>   44.9826    0.0000 </r>
       <r>   48.7954    0.0000 </r>
       <r>   49.2725    0.0000 </r>
       <r>   50.5966    0.0000 </r>
       <r>   51.9255    0.0000 </r>
       <r>   52.4614    0.0000 </r>
       <r>   52.6856    0.0000 </r>
       <r>   53.8359    0.0000 </r>
       <r>   57.1316    0.0000 </r>
       <r>   57.8746    0.0000 </r>
       <r>   58.7281    0.0000 </r>
       <r>   58.9150    0.0000 </r>
       <r>   60.9239    0.0000 </r>
       <r>   62.6607    0.0000 </r>
      </set>
      <set comment="kpoint 285">
       <r>  -12.5726    1.0000 </r>
       <r>   -0.2580    1.0000 </r>
       <r>    0.2730    1.0000 </r>
       <r>    1.2727    1.0000 </r>
       <r>   13.9525    0.0000 </r>
       <r>   14.8215    0.0000 </r>
       <r>   14.8352    0.0000 </r>
       <r>   18.5303    0.0000 </r>
       <r>   23.7526    0.0000 </r>
       <r>   25.7076    0.0000 </r>
       <r>   29.1254    0.0000 </r>
       <r>   31.5776    0.0000 </r>
       <r>   34.0898    0.0000 </r>
       <r>   37.3080    0.0000 </r>
       <r>   40.0659    0.0000 </r>
       <r>   40.3189    0.0000 </r>
       <r>   42.5772    0.0000 </r>
       <r>   43.0040    0.0000 </r>
       <r>   44.4227    0.0000 </r>
       <r>   48.7501    0.0000 </r>
       <r>   50.5406    0.0000 </r>
       <r>   51.8914    0.0000 </r>
       <r>   52.3062    0.0000 </r>
       <r>   52.4335    0.0000 </r>
       <r>   52.6833    0.0000 </r>
       <r>   53.4198    0.0000 </r>
       <r>   55.3169    0.0000 </r>
       <r>   57.5850    0.0000 </r>
       <r>   58.6001    0.0000 </r>
       <r>   58.9652    0.0000 </r>
       <r>   60.4821    0.0000 </r>
       <r>   62.1028    0.0000 </r>
      </set>
      <set comment="kpoint 286">
       <r>  -12.5717    1.0000 </r>
       <r>   -0.1074    1.0000 </r>
       <r>    0.1224    1.0000 </r>
       <r>    1.2416    1.0000 </r>
       <r>   14.3000    0.0000 </r>
       <r>   14.5230    0.0000 </r>
       <r>   14.9791    0.0000 </r>
       <r>   18.3387    0.0000 </r>
       <r>   24.3598    0.0000 </r>
       <r>   24.9481    0.0000 </r>
       <r>   29.1548    0.0000 </r>
       <r>   31.6732    0.0000 </r>
       <r>   34.2065    0.0000 </r>
       <r>   37.1246    0.0000 </r>
       <r>   39.7660    0.0000 </r>
       <r>   40.6326    0.0000 </r>
       <r>   42.3893    0.0000 </r>
       <r>   43.5013    0.0000 </r>
       <r>   44.0045    0.0000 </r>
       <r>   48.5763    0.0000 </r>
       <r>   51.7192    0.0000 </r>
       <r>   51.9552    0.0000 </r>
       <r>   52.1087    0.0000 </r>
       <r>   52.4086    0.0000 </r>
       <r>   52.8590    0.0000 </r>
       <r>   54.3228    0.0000 </r>
       <r>   54.7238    0.0000 </r>
       <r>   57.0399    0.0000 </r>
       <r>   57.4683    0.0000 </r>
       <r>   59.5079    0.0000 </r>
       <r>   60.1459    0.0000 </r>
       <r>   62.2449    0.0000 </r>
      </set>
     </set>
    </set>
   </array>
  </eigenvalues>
  <separator name="orbital magnetization" >
   <v name="MAGDIPOLOUT">      0.00000000      0.00000000      0.00000000</v>
  </separator>
  <dos>
   <i name="efermi">      3.55109756 </i>
   <total>
    <array>
     <dimension dim="1">gridpoints</dimension>
     <dimension dim="2">spin</dimension>
     <field>energy</field>
     <field>total</field>
     <field>integrated</field>
     <set>
      <set comment="spin 1">
       <r>   -18.3694     0.0000     0.0000 </r>
       <r>   -18.0612     0.0000     0.0000 </r>
       <r>   -17.7530     0.0000     0.0000 </r>
       <r>   -17.4449     0.0000     0.0000 </r>
       <r>   -17.1367     0.0000     0.0000 </r>
       <r>   -16.8285     0.0000     0.0000 </r>
       <r>   -16.5203     0.0000     0.0000 </r>
       <r>   -16.2121     0.0000     0.0000 </r>
       <r>   -15.9039     0.0000     0.0000 </r>
       <r>   -15.5957     0.0000     0.0000 </r>
       <r>   -15.2875     0.0000     0.0000 </r>
       <r>   -14.9793     0.0000     0.0000 </r>
       <r>   -14.6711     0.0000     0.0000 </r>
       <r>   -14.3629     0.0000     0.0000 </r>
       <r>   -14.0547     0.0458     0.0141 </r>
       <r>   -13.7465     0.2709     0.0976 </r>
       <r>   -13.4383     0.5002     0.2518 </r>
       <r>   -13.1301     0.8528     0.5146 </r>
       <r>   -12.8219     1.8861     1.0959 </r>
       <r>   -12.5137     2.8315     1.9685 </r>
       <r>   -12.2055     0.1021     2.0000 </r>
       <r>   -11.8973     0.0000     2.0000 </r>
       <r>   -11.5891     0.0000     2.0000 </r>
       <r>   -11.2809     0.0000     2.0000 </r>
       <r>   -10.9727     0.0000     2.0000 </r>
       <r>   -10.6645     0.0000     2.0000 </r>
       <r>   -10.3563     0.0000     2.0000 </r>
       <r>   -10.0481     0.0000     2.0000 </r>
       <r>    -9.7399     0.0000     2.0000 </r>
       <r>    -9.4317     0.0000     2.0000 </r>
       <r>    -9.1235     0.0000     2.0000 </r>
       <r>    -8.8153     0.0000     2.0000 </r>
       <r>    -8.5071     0.0000     2.0000 </r>
       <r>    -8.1989     0.0000     2.0000 </r>
       <r>    -7.8907     0.0000     2.0000 </r>
       <r>    -7.5825     0.0000     2.0000 </r>
       <r>    -7.2743     0.0000     2.0000 </r>
       <r>    -6.9661     0.0000     2.0000 </r>
       <r>    -6.6579     0.0000     2.0000 </r>
       <r>    -6.3497     0.0000     2.0000 </r>
       <r>    -6.0415     0.0000     2.0000 </r>
       <r>    -5.7333     0.0000     2.0000 </r>
       <r>    -5.4252     0.0000     2.0000 </r>
       <r>    -5.1170     0.0000     2.0000 </r>
       <r>    -4.8088     0.0000     2.0000 </r>
       <r>    -4.5006     0.0000     2.0000 </r>
       <r>    -4.1924     0.0000     2.0000 </r>
       <r>    -3.8842     0.0000     2.0000 </r>
       <r>    -3.5760     0.0000     2.0000 </r>
       <r>    -3.2678     0.0000     2.0000 </r>
       <r>    -2.9596     0.0000     2.0000 </r>
       <r>    -2.6514     0.0000     2.0000 </r>
       <r>    -2.3432     0.0000     2.0000 </r>
       <r>    -2.0350     0.0000     2.0000 </r>
       <r>    -1.7268     0.0018     2.0005 </r>
       <r>    -1.4186     0.1787     2.0556 </r>
       <r>    -1.1104     0.5187     2.2155 </r>
       <r>    -0.8022     1.3034     2.6172 </r>
       <r>    -0.4940     2.1825     3.2899 </r>
       <r>    -0.1858     1.0314     3.6077 </r>
       <r>     0.1224     0.5534     3.7783 </r>
       <r>     0.4306     0.7335     4.0044 </r>
       <r>     0.7388     0.8707     4.2727 </r>
       <r>     1.0470     0.9321     4.5600 </r>
       <r>     1.3552     1.1083     4.9016 </r>
       <r>     1.6634     1.7877     5.4525 </r>
       <r>     1.9716     2.5295     6.2321 </r>
       <r>     2.2798     2.7726     7.0866 </r>
       <r>     2.5880     1.9953     7.7016 </r>
       <r>     2.8962     0.8580     7.9660 </r>
       <r>     3.2044     0.1103     8.0000 </r>
       <r>     3.5126     0.0000     8.0000 </r>
       <r>     3.8208     0.0000     8.0000 </r>
       <r>     4.1290     0.0000     8.0000 </r>
       <r>     4.4372     0.0000     8.0000 </r>
       <r>     4.7454     0.0000     8.0000 </r>
       <r>     5.0536     0.0000     8.0000 </r>
       <r>     5.3618     0.0000     8.0000 </r>
       <r>     5.6700     0.0000     8.0000 </r>
       <r>     5.9782     0.0000     8.0000 </r>
       <r>     6.2863     0.0000     8.0000 </r>
       <r>     6.5945     0.0000     8.0000 </r>
       <r>     6.9027     0.0000     8.0000 </r>
       <r>     7.2109     0.0000     8.0000 </r>
       <r>     7.5191     0.0003     8.0001 </r>
       <r>     7.8273     0.0099     8.0032 </r>
       <r>     8.1355     0.0254     8.0110 </r>
       <r>     8.4437     0.0303     8.0203 </r>
       <r>     8.7519     0.0468     8.0347 </r>
       <r>     9.0601     0.0662     8.0551 </r>
       <r>     9.3683     0.0652     8.0752 </r>
       <r>     9.6765     0.1188     8.1118 </r>
       <r>     9.9847     0.1114     8.1462 </r>
       <r>    10.2929     0.1702     8.1986 </r>
       <r>    10.6011     0.2394     8.2724 </r>
       <r>    10.9093     0.3657     8.3851 </r>
       <r>    11.2175     0.4505     8.5240 </r>
       <r>    11.5257     0.4667     8.6678 </r>
       <r>    11.8339     0.4557     8.8083 </r>
       <r>    12.1421     0.5378     8.9740 </r>
       <r>    12.4503     0.7592     9.2080 </r>
       <r>    12.7585     0.8642     9.4743 </r>
       <r>    13.0667     0.9974     9.7817 </r>
       <r>    13.3749     0.7784    10.0216 </r>
       <r>    13.6831     0.5506    10.1913 </r>
       <r>    13.9913     0.6836    10.4020 </r>
       <r>    14.2995     0.6481    10.6017 </r>
       <r>    14.6077     1.0435    10.9233 </r>
       <r>    14.9159     1.5817    11.4108 </r>
       <r>    15.2241     1.4871    11.8691 </r>
       <r>    15.5323     1.0615    12.1963 </r>
       <r>    15.8405     0.9362    12.4848 </r>
       <r>    16.1487     0.7137    12.7048 </r>
       <r>    16.4569     0.5533    12.8753 </r>
       <r>    16.7651     0.4645    13.0185 </r>
       <r>    17.0733     0.4754    13.1650 </r>
       <r>    17.3815     0.3370    13.2689 </r>
       <r>    17.6897     0.3843    13.3873 </r>
       <r>    17.9979     0.3263    13.4879 </r>
       <r>    18.3060     0.3217    13.5870 </r>
       <r>    18.6142     0.3786    13.7037 </r>
       <r>    18.9224     0.5476    13.8725 </r>
       <r>    19.2306     0.8980    14.1492 </r>
       <r>    19.5388     1.0808    14.4823 </r>
       <r>    19.8470     1.5644    14.9645 </r>
       <r>    20.1552     1.4784    15.4201 </r>
       <r>    20.4634     1.1180    15.7647 </r>
       <r>    20.7716     0.5899    15.9465 </r>
       <r>    21.0798     0.5962    16.1302 </r>
       <r>    21.3880     0.7497    16.3613 </r>
       <r>    21.6962     0.8168    16.6130 </r>
       <r>    22.0044     0.7988    16.8592 </r>
       <r>    22.3126     0.6334    17.0544 </r>
       <r>    22.6208     0.6659    17.2597 </r>
       <r>    22.9290     0.6023    17.4453 </r>
       <r>    23.2372     0.6111    17.6336 </r>
       <r>    23.5454     0.6212    17.8251 </r>
       <r>    23.8536     0.5700    18.0008 </r>
       <r>    24.1618     0.7656    18.2367 </r>
       <r>    24.4700     0.7195    18.4585 </r>
       <r>    24.7782     0.8778    18.7290 </r>
       <r>    25.0864     0.8657    18.9958 </r>
       <r>    25.3946     0.8646    19.2623 </r>
       <r>    25.7028     0.6418    19.4601 </r>
       <r>    26.0110     0.5563    19.6316 </r>
       <r>    26.3192     0.6822    19.8418 </r>
       <r>    26.6274     0.5153    20.0006 </r>
       <r>    26.9356     0.3455    20.1071 </r>
       <r>    27.2438     0.5924    20.2897 </r>
       <r>    27.5520     0.6016    20.4751 </r>
       <r>    27.8602     0.4288    20.6073 </r>
       <r>    28.1684     0.3917    20.7280 </r>
       <r>    28.4766     0.6294    20.9220 </r>
       <r>    28.7848     0.7102    21.1409 </r>
       <r>    29.0930     0.4701    21.2857 </r>
       <r>    29.4012     0.6439    21.4842 </r>
       <r>    29.7094     0.9057    21.7633 </r>
       <r>    30.0175     1.1403    22.1147 </r>
       <r>    30.3257     0.7002    22.3306 </r>
       <r>    30.6339     0.9544    22.6247 </r>
       <r>    30.9421     1.1395    22.9759 </r>
       <r>    31.2503     1.4980    23.4376 </r>
       <r>    31.5585     1.4726    23.8914 </r>
       <r>    31.8667     1.6290    24.3934 </r>
       <r>    32.1749     1.9923    25.0075 </r>
       <r>    32.4831     1.8187    25.5680 </r>
       <r>    32.7913     1.1658    25.9273 </r>
       <r>    33.0995     0.8669    26.1945 </r>
       <r>    33.4077     0.5535    26.3651 </r>
       <r>    33.7159     0.6555    26.5671 </r>
       <r>    34.0241     0.6089    26.7547 </r>
       <r>    34.3323     0.4632    26.8975 </r>
       <r>    34.6405     0.5430    27.0649 </r>
       <r>    34.9487     0.5046    27.2204 </r>
       <r>    35.2569     0.7160    27.4410 </r>
       <r>    35.5651     0.8836    27.7134 </r>
       <r>    35.8733     0.7838    27.9549 </r>
       <r>    36.1815     0.8979    28.2316 </r>
       <r>    36.4897     0.8192    28.4841 </r>
       <r>    36.7979     0.9229    28.7686 </r>
       <r>    37.1061     0.6934    28.9823 </r>
       <r>    37.4143     0.9303    29.2690 </r>
       <r>    37.7225     0.6096    29.4569 </r>
       <r>    38.0307     0.6984    29.6721 </r>
       <r>    38.3389     0.8141    29.9230 </r>
       <r>    38.6471     0.7018    30.1393 </r>
       <r>    38.9553     0.5772    30.3172 </r>
       <r>    39.2635     0.9763    30.6181 </r>
       <r>    39.5717     0.6649    30.8230 </r>
       <r>    39.8799     0.6605    31.0266 </r>
       <r>    40.1881     0.6825    31.2369 </r>
       <r>    40.4963     0.9525    31.5305 </r>
       <r>    40.8045     0.8147    31.7816 </r>
       <r>    41.1127     0.9855    32.0853 </r>
       <r>    41.4209     1.1398    32.4366 </r>
       <r>    41.7291     0.8594    32.7014 </r>
       <r>    42.0372     0.8890    32.9754 </r>
       <r>    42.3454     0.7451    33.2050 </r>
       <r>    42.6536     0.8176    33.4570 </r>
       <r>    42.9618     0.5945    33.6403 </r>
       <r>    43.2700     0.7560    33.8732 </r>
       <r>    43.5782     0.8064    34.1218 </r>
       <r>    43.8864     0.9469    34.4136 </r>
       <r>    44.1946     1.1048    34.7541 </r>
       <r>    44.5028     1.1613    35.1120 </r>
       <r>    44.8110     1.0096    35.4232 </r>
       <r>    45.1192     0.8200    35.6759 </r>
       <r>    45.4274     1.2135    36.0499 </r>
       <r>    45.7356     0.9597    36.3456 </r>
       <r>    46.0438     0.8242    36.5997 </r>
       <r>    46.3520     1.0755    36.9311 </r>
       <r>    46.6602     0.7603    37.1654 </r>
       <r>    46.9684     0.7937    37.4101 </r>
       <r>    47.2766     0.8428    37.6698 </r>
       <r>    47.5848     0.7161    37.8905 </r>
       <r>    47.8930     0.8376    38.1486 </r>
       <r>    48.2012     0.9593    38.4443 </r>
       <r>    48.5094     0.9630    38.7411 </r>
       <r>    48.8176     1.1771    39.1038 </r>
       <r>    49.1258     1.2845    39.4997 </r>
       <r>    49.4340     0.9388    39.7891 </r>
       <r>    49.7422     1.0551    40.1142 </r>
       <r>    50.0504     0.6798    40.3238 </r>
       <r>    50.3586     1.1097    40.6658 </r>
       <r>    50.6668     1.0556    40.9911 </r>
       <r>    50.9750     1.1819    41.3554 </r>
       <r>    51.2832     1.0511    41.6793 </r>
       <r>    51.5914     1.6775    42.1963 </r>
       <r>    51.8996     2.1273    42.8520 </r>
       <r>    52.2078     3.6748    43.9845 </r>
       <r>    52.5160     4.2293    45.2880 </r>
       <r>    52.8242     4.5399    46.6872 </r>
       <r>    53.1324     3.1938    47.6715 </r>
       <r>    53.4406     1.9542    48.2738 </r>
       <r>    53.7487     1.3211    48.6809 </r>
       <r>    54.0569     1.3040    49.0828 </r>
       <r>    54.3651     1.2014    49.4531 </r>
       <r>    54.6733     1.3552    49.8708 </r>
       <r>    54.9815     1.2371    50.2520 </r>
       <r>    55.2897     1.2085    50.6245 </r>
       <r>    55.5979     0.9559    50.9191 </r>
       <r>    55.9061     1.0273    51.2357 </r>
       <r>    56.2143     0.9531    51.5295 </r>
       <r>    56.5225     0.9092    51.8097 </r>
       <r>    56.8307     1.3025    52.2111 </r>
       <r>    57.1389     1.2414    52.5937 </r>
       <r>    57.4471     1.3636    53.0140 </r>
       <r>    57.7553     1.4366    53.4567 </r>
       <r>    58.0635     1.5722    53.9413 </r>
       <r>    58.3717     1.2386    54.3230 </r>
       <r>    58.6799     1.0529    54.6475 </r>
       <r>    58.9881     1.4289    55.0879 </r>
       <r>    59.2963     1.5063    55.5521 </r>
       <r>    59.6045     1.5080    56.0169 </r>
       <r>    59.9127     1.4427    56.4616 </r>
       <r>    60.2209     1.8227    57.0233 </r>
       <r>    60.5291     1.7245    57.5548 </r>
       <r>    60.8373     1.3354    57.9663 </r>
       <r>    61.1455     1.0120    58.2782 </r>
       <r>    61.4537     0.9199    58.5618 </r>
       <r>    61.7619     0.8886    58.8356 </r>
       <r>    62.0701     0.7248    59.0590 </r>
       <r>    62.3783     0.8209    59.3120 </r>
       <r>    62.6865     0.9741    59.6122 </r>
       <r>    62.9947     1.0840    59.9463 </r>
       <r>    63.3029     0.9619    60.2428 </r>
       <r>    63.6111     1.2524    60.6288 </r>
       <r>    63.9193     1.1560    60.9850 </r>
       <r>    64.2275     1.1815    61.3492 </r>
       <r>    64.5357     1.0242    61.6648 </r>
       <r>    64.8439     1.0213    61.9796 </r>
       <r>    65.1521     1.0026    62.2886 </r>
       <r>    65.4602     0.8449    62.5490 </r>
       <r>    65.7684     0.8203    62.8018 </r>
       <r>    66.0766     0.8420    63.0613 </r>
       <r>    66.3848     0.5316    63.2251 </r>
       <r>    66.6930     0.3954    63.3470 </r>
       <r>    67.0012     0.6145    63.5364 </r>
       <r>    67.3094     0.3444    63.6426 </r>
       <r>    67.6176     0.3776    63.7589 </r>
       <r>    67.9258     0.2155    63.8254 </r>
       <r>    68.2340     0.2193    63.8929 </r>
       <r>    68.5422     0.1258    63.9317 </r>
       <r>    68.8504     0.0554    63.9488 </r>
       <r>    69.1586     0.0369    63.9602 </r>
       <r>    69.4668     0.0616    63.9791 </r>
       <r>    69.7750     0.0356    63.9901 </r>
       <r>    70.0832     0.0321    64.0000 </r>
       <r>    70.3914     0.0001    64.0000 </r>
       <r>    70.6996     0.0000    64.0000 </r>
       <r>    71.0078     0.0000    64.0000 </r>
       <r>    71.3160     0.0000    64.0000 </r>
       <r>    71.6242     0.0000    64.0000 </r>
       <r>    71.9324     0.0000    64.0000 </r>
       <r>    72.2406     0.0000    64.0000 </r>
       <r>    72.5488     0.0000    64.0000 </r>
       <r>    72.8570     0.0000    64.0000 </r>
       <r>    73.1652     0.0000    64.0000 </r>
       <r>    73.4734     0.0000    64.0000 </r>
       <r>    73.7816     0.0000    64.0000 </r>
       <r>    74.0898     0.0000    64.0000 </r>
      </set>
     </set>
    </array>
   </total>
  </dos>
 </calculation>
 <structure name="finalpos" >
  <crystal>
   <varray name="basis" >
    <v>       0.00000000       2.11287962       2.11287962 </v>
    <v>       2.11287962       0.00000000       2.11287962 </v>
    <v>       2.11287962       2.11287962       0.00000000 </v>
   </varray>
   <i name="volume">     18.86488924 </i>
   <varray name="rec_basis" >
    <v>      -0.23664386       0.23664386       0.23664386 </v>
    <v>       0.23664386      -0.23664386       0.23664386 </v>
    <v>       0.23664386       0.23664386      -0.23664386 </v>
   </varray>
  </crystal>
  <varray name="positions" >
   <v>       0.50000000       0.50000000       0.50000000 </v>
   <v>       0.00000000       0.00000000       0.00000000 </v>
  </varray>
 </structure>
</modeling>
