1775070
/opt/cray/pe/gcc/11.2.0/snos/lib64:/opt/cray/pe/papi/6.0.0.15/lib64:/pdc/software/22.06/eb/software/ncurses/6.3/lib:/opt/cray/libfabric/1.15.0.0/lib64
------------------------------------------------------------
          Invoking FHI-aims ...

          When using FHI-aims, please cite the following reference:

            Volker Blum, Ralf Gehrke, Felix Hanke, Paula Havu,
            Ville Havu, Xinguo Ren, Karsten Reuter, and Matthias Scheffler,
            'Ab Initio Molecular Simulations with Numeric Atom-Centered Orbitals',
            Computer Physics Communications 180, 2175-2196 (2009)

          In addition, many other developments in FHI-aims are likely important for
          your particular application. A partial list of references is given at the end of
          this file. Thank you for giving credit to the authors of these developments.

          For any questions about FHI-aims, please visit our slack channel at

            https://fhi-aims.slack.com

          and our main development and support site at

            https://aims-git.rz-berlin.mpg.de .

          The latter site, in particular, has a wiki to collect information, as well
          as an issue tracker to log discussions, suggest improvements, and report issues
          or bugs. https://aims-git.rz-berlin.mpg.de is also the main development site
          of the project and all new and updated code versions can be obtained there.
          Please send an email to aims-coordinators@fhi-berlin.mpg.de and we will add
          you to these sites. They are for you and everyone is welcome there.

------------------------------------------------------------



  Date     :  20230621, Time     :  172925.660
  Time zero on CPU 1             :   0.807149000000000E+00  s.
  Internal wall clock time zero  :           456600565.660  s.

  FHI-aims created a unique identifier for this run for later identification
  aims_uuid : 38094888-FC9B-4C0A-AB0C-7B2FF9694653

  Build configuration of the current instance of FHI-aims
  -------------------------------------------------------
  FHI-aims version      : 221103
  Commit number         : cd81235a3
  CMake host system     : Linux-5.3.18-150300.59.76_11.0.53-cray_shasta_c
  CMake version         : 3.17.0
  Fortran compiler      : /opt/cray/pe/craype/2.7.16/bin/ftn (GNU) version 11.2.0
  Fortran compiler flags: -O3 -ffree-line-length-none -fallow-argument-mismatch -march=znver2 -mtune=znver2 -mfma -mavx2 -m3dnow -fomit-frame-pointer
  C compiler            : /opt/cray/pe/craype/2.7.16/bin/cc (GNU) version 11.2.0
  C compiler flags      : -O3 -funroll-loops -ffast-math
  C++ compiler          : /opt/cray/pe/craype/2.7.16/bin/CC (GNU) version 11.2.0
  C++ compiler flags    : -O3 -funroll-loops -ffast-math
  HIP compiler          :
  HIP compiler flags    :
  HIP GPU arch          :
  ELPA2 kernel          : AVX2
  Using MPI
  Using ScaLAPACK
  Using LibXC
  Using i-PI
  Using RLSY
  Linking against:

  Using      256 parallel tasks.
  Task        0 on host nid001312 reporting.
  Task        1 on host nid001312 reporting.
  Task        2 on host nid001312 reporting.
  Task        3 on host nid001312 reporting.
  Task        4 on host nid001312 reporting.
  Task        5 on host nid001312 reporting.
  Task        6 on host nid001312 reporting.
  Task        7 on host nid001312 reporting.
  Task        8 on host nid001312 reporting.
  Task        9 on host nid001312 reporting.
  Task       10 on host nid001312 reporting.
  Task       11 on host nid001312 reporting.
  Task       12 on host nid001312 reporting.
  Task       13 on host nid001312 reporting.
  Task       14 on host nid001312 reporting.
  Task       15 on host nid001312 reporting.
  Task       16 on host nid001312 reporting.
  Task       17 on host nid001312 reporting.
  Task       18 on host nid001312 reporting.
  Task       19 on host nid001312 reporting.
  Task       20 on host nid001312 reporting.
  Task       21 on host nid001312 reporting.
  Task       22 on host nid001312 reporting.
  Task       23 on host nid001312 reporting.
  Task       24 on host nid001312 reporting.
  Task       25 on host nid001312 reporting.
  Task       26 on host nid001312 reporting.
  Task       27 on host nid001312 reporting.
  Task       28 on host nid001312 reporting.
  Task       29 on host nid001312 reporting.
  Task       30 on host nid001312 reporting.
  Task       31 on host nid001312 reporting.
  Task       32 on host nid001312 reporting.
  Task       33 on host nid001312 reporting.
  Task       34 on host nid001312 reporting.
  Task       35 on host nid001312 reporting.
  Task       36 on host nid001312 reporting.
  Task       37 on host nid001312 reporting.
  Task       38 on host nid001312 reporting.
  Task       39 on host nid001312 reporting.
  Task       40 on host nid001312 reporting.
  Task       41 on host nid001312 reporting.
  Task       42 on host nid001312 reporting.
  Task       43 on host nid001312 reporting.
  Task       44 on host nid001312 reporting.
  Task       45 on host nid001312 reporting.
  Task       46 on host nid001312 reporting.
  Task       47 on host nid001312 reporting.
  Task       48 on host nid001312 reporting.
  Task       49 on host nid001312 reporting.
  Task       50 on host nid001312 reporting.
  Task       51 on host nid001312 reporting.
  Task       52 on host nid001312 reporting.
  Task       53 on host nid001312 reporting.
  Task       54 on host nid001312 reporting.
  Task       55 on host nid001312 reporting.
  Task       56 on host nid001312 reporting.
  Task       57 on host nid001312 reporting.
  Task       58 on host nid001312 reporting.
  Task       59 on host nid001312 reporting.
  Task       60 on host nid001312 reporting.
  Task       61 on host nid001312 reporting.
  Task       62 on host nid001312 reporting.
  Task       63 on host nid001312 reporting.
  Task       64 on host nid001312 reporting.
  Task       65 on host nid001312 reporting.
  Task       66 on host nid001312 reporting.
  Task       67 on host nid001312 reporting.
  Task       68 on host nid001312 reporting.
  Task       69 on host nid001312 reporting.
  Task       70 on host nid001312 reporting.
  Task       71 on host nid001312 reporting.
  Task       72 on host nid001312 reporting.
  Task       73 on host nid001312 reporting.
  Task       74 on host nid001312 reporting.
  Task       75 on host nid001312 reporting.
  Task       76 on host nid001312 reporting.
  Task       77 on host nid001312 reporting.
  Task       78 on host nid001312 reporting.
  Task       79 on host nid001312 reporting.
  Task       80 on host nid001312 reporting.
  Task       81 on host nid001312 reporting.
  Task       82 on host nid001312 reporting.
  Task       83 on host nid001312 reporting.
  Task       84 on host nid001312 reporting.
  Task       85 on host nid001312 reporting.
  Task       86 on host nid001312 reporting.
  Task       87 on host nid001312 reporting.
  Task       88 on host nid001312 reporting.
  Task       89 on host nid001312 reporting.
  Task       90 on host nid001312 reporting.
  Task       91 on host nid001312 reporting.
  Task       92 on host nid001312 reporting.
  Task       93 on host nid001312 reporting.
  Task       94 on host nid001312 reporting.
  Task       95 on host nid001312 reporting.
  Task       96 on host nid001312 reporting.
  Task       97 on host nid001312 reporting.
  Task       98 on host nid001312 reporting.
  Task       99 on host nid001312 reporting.
  Task      100 on host nid001312 reporting.
  Task      101 on host nid001312 reporting.
  Task      102 on host nid001312 reporting.
  Task      103 on host nid001312 reporting.
  Task      104 on host nid001312 reporting.
  Task      105 on host nid001312 reporting.
  Task      106 on host nid001312 reporting.
  Task      107 on host nid001312 reporting.
  Task      108 on host nid001312 reporting.
  Task      109 on host nid001312 reporting.
  Task      110 on host nid001312 reporting.
  Task      111 on host nid001312 reporting.
  Task      112 on host nid001312 reporting.
  Task      113 on host nid001312 reporting.
  Task      114 on host nid001312 reporting.
  Task      115 on host nid001312 reporting.
  Task      116 on host nid001312 reporting.
  Task      117 on host nid001312 reporting.
  Task      118 on host nid001312 reporting.
  Task      119 on host nid001312 reporting.
  Task      120 on host nid001312 reporting.
  Task      121 on host nid001312 reporting.
  Task      122 on host nid001312 reporting.
  Task      123 on host nid001312 reporting.
  Task      124 on host nid001312 reporting.
  Task      125 on host nid001312 reporting.
  Task      126 on host nid001312 reporting.
  Task      127 on host nid001312 reporting.
  Task      128 on host nid001366 reporting.
  Task      129 on host nid001366 reporting.
  Task      130 on host nid001366 reporting.
  Task      131 on host nid001366 reporting.
  Task      132 on host nid001366 reporting.
  Task      133 on host nid001366 reporting.
  Task      134 on host nid001366 reporting.
  Task      135 on host nid001366 reporting.
  Task      136 on host nid001366 reporting.
  Task      137 on host nid001366 reporting.
  Task      138 on host nid001366 reporting.
  Task      139 on host nid001366 reporting.
  Task      140 on host nid001366 reporting.
  Task      141 on host nid001366 reporting.
  Task      142 on host nid001366 reporting.
  Task      143 on host nid001366 reporting.
  Task      144 on host nid001366 reporting.
  Task      145 on host nid001366 reporting.
  Task      146 on host nid001366 reporting.
  Task      147 on host nid001366 reporting.
  Task      148 on host nid001366 reporting.
  Task      149 on host nid001366 reporting.
  Task      150 on host nid001366 reporting.
  Task      151 on host nid001366 reporting.
  Task      152 on host nid001366 reporting.
  Task      153 on host nid001366 reporting.
  Task      154 on host nid001366 reporting.
  Task      155 on host nid001366 reporting.
  Task      156 on host nid001366 reporting.
  Task      157 on host nid001366 reporting.
  Task      158 on host nid001366 reporting.
  Task      159 on host nid001366 reporting.
  Task      160 on host nid001366 reporting.
  Task      161 on host nid001366 reporting.
  Task      162 on host nid001366 reporting.
  Task      163 on host nid001366 reporting.
  Task      164 on host nid001366 reporting.
  Task      165 on host nid001366 reporting.
  Task      166 on host nid001366 reporting.
  Task      167 on host nid001366 reporting.
  Task      168 on host nid001366 reporting.
  Task      169 on host nid001366 reporting.
  Task      170 on host nid001366 reporting.
  Task      171 on host nid001366 reporting.
  Task      172 on host nid001366 reporting.
  Task      173 on host nid001366 reporting.
  Task      174 on host nid001366 reporting.
  Task      175 on host nid001366 reporting.
  Task      176 on host nid001366 reporting.
  Task      177 on host nid001366 reporting.
  Task      178 on host nid001366 reporting.
  Task      179 on host nid001366 reporting.
  Task      180 on host nid001366 reporting.
  Task      181 on host nid001366 reporting.
  Task      182 on host nid001366 reporting.
  Task      183 on host nid001366 reporting.
  Task      184 on host nid001366 reporting.
  Task      185 on host nid001366 reporting.
  Task      186 on host nid001366 reporting.
  Task      187 on host nid001366 reporting.
  Task      188 on host nid001366 reporting.
  Task      189 on host nid001366 reporting.
  Task      190 on host nid001366 reporting.
  Task      191 on host nid001366 reporting.
  Task      192 on host nid001366 reporting.
  Task      193 on host nid001366 reporting.
  Task      194 on host nid001366 reporting.
  Task      195 on host nid001366 reporting.
  Task      196 on host nid001366 reporting.
  Task      197 on host nid001366 reporting.
  Task      198 on host nid001366 reporting.
  Task      199 on host nid001366 reporting.
  Task      200 on host nid001366 reporting.
  Task      201 on host nid001366 reporting.
  Task      202 on host nid001366 reporting.
  Task      203 on host nid001366 reporting.
  Task      204 on host nid001366 reporting.
  Task      205 on host nid001366 reporting.
  Task      206 on host nid001366 reporting.
  Task      207 on host nid001366 reporting.
  Task      208 on host nid001366 reporting.
  Task      209 on host nid001366 reporting.
  Task      210 on host nid001366 reporting.
  Task      211 on host nid001366 reporting.
  Task      212 on host nid001366 reporting.
  Task      213 on host nid001366 reporting.
  Task      214 on host nid001366 reporting.
  Task      215 on host nid001366 reporting.
  Task      216 on host nid001366 reporting.
  Task      217 on host nid001366 reporting.
  Task      218 on host nid001366 reporting.
  Task      219 on host nid001366 reporting.
  Task      220 on host nid001366 reporting.
  Task      221 on host nid001366 reporting.
  Task      222 on host nid001366 reporting.
  Task      223 on host nid001366 reporting.
  Task      224 on host nid001366 reporting.
  Task      225 on host nid001366 reporting.
  Task      226 on host nid001366 reporting.
  Task      227 on host nid001366 reporting.
  Task      228 on host nid001366 reporting.
  Task      229 on host nid001366 reporting.
  Task      230 on host nid001366 reporting.
  Task      231 on host nid001366 reporting.
  Task      232 on host nid001366 reporting.
  Task      233 on host nid001366 reporting.
  Task      234 on host nid001366 reporting.
  Task      235 on host nid001366 reporting.
  Task      236 on host nid001366 reporting.
  Task      237 on host nid001366 reporting.
  Task      238 on host nid001366 reporting.
  Task      239 on host nid001366 reporting.
  Task      240 on host nid001366 reporting.
  Task      241 on host nid001366 reporting.
  Task      242 on host nid001366 reporting.
  Task      243 on host nid001366 reporting.
  Task      244 on host nid001366 reporting.
  Task      245 on host nid001366 reporting.
  Task      246 on host nid001366 reporting.
  Task      247 on host nid001366 reporting.
  Task      248 on host nid001366 reporting.
  Task      249 on host nid001366 reporting.
  Task      250 on host nid001366 reporting.
  Task      251 on host nid001366 reporting.
  Task      252 on host nid001366 reporting.
  Task      253 on host nid001366 reporting.
  Task      254 on host nid001366 reporting.
  Task      255 on host nid001366 reporting.

  Performing system and environment tests:
  | Environment variable OMP_NUM_THREADS correctly set to 1.
  | Checking for ScaLAPACK...
  | Testing pdtran()...
  | All pdtran() tests passed.

  Obtaining array dimensions for all initial allocations:
  
  -----------------------------------------------------------------------
  Parsing control.in (first pass over file, find array dimensions only).
  The contents of control.in will be repeated verbatim below
  unless switched off by setting 'verbatim_writeout .false.' .
  in the first line of control.in .
  -----------------------------------------------------------------------
  
  #===============================================================================
  # FHI-aims file: ./control.in
  # Created using the Atomic Simulation Environment (ASE)
  # Wed Jun 21 16:05:18 2023
  #===============================================================================
  xc                                 pbe
  occupation_type                    gaussian 0.2
  sc_accuracy_rho                    1e-06
  sc_accuracy_forces                 0.0001
  k_grid                             6 6 6
  relativistic                       atomic_zora scalar
  output_level                       MD_light
  compute_forces                     .true.
  compute_analytical_stress          .true.
  #===============================================================================
  
  ################################################################################
  #
  #  FHI-aims code project
  #  VB, Fritz-Haber Institut, 2009
  #
  #  Suggested "light" defaults for Os atom (to be pasted into control.in file)
  #  Be sure to double-check any results obtained with these settings for post-processing,
  #  e.g., with the "tight" defaults and larger basis sets.
  #
  ################################################################################
    species          Os
  #     global species definitions
      nucleus        76
      mass           190.23
  #
      l_hartree      4
  #
      cut_pot        3.5  1.5  1.0
      basis_dep_cutoff    1e-4
  #
      radial_base    72  5.0
      radial_multiplier  1
      angular_grids specified
        division   0.3468   50
        division   0.9290  110
        division   1.2652  194
        division   1.5835  302
  #      division   1.8546  434
  #      division   1.9966  590
  #      division   2.0267  770
  #      division   2.0887  974
  #      division   2.6529 1202
  #      outer_grid  974
        outer_grid  302
  ################################################################################
  #
  #  Definition of "minimal" basis
  #
  ################################################################################
  #     valence basis states
      valence      6  s   2.
      valence      5  p   6.
      valence      5  d   6.
      valence      4  f  14.
  #     ion occupancy
      ion_occ      6  s   1.
      ion_occ      5  p   6.
      ion_occ      5  d   5.
      ion_occ      4  f  14.
  ################################################################################
  #
  #  Suggested additional basis functions. For production calculations,
  #  uncomment them one after another (the most important basis functions are
  #  listed first).
  #
  #  Constructed for dimers: 1.80, 2.04, 2.50, 3.25, 4.50 AA
  #
  ################################################################################
  #
  #  "First tier" - improvements: -453.39 meV to -28.79 meV
       hydro 4 f 8.2
       ionic 6 p auto
       ionic 5 d auto
  #     hydro 5 g 12
       ionic 6 s auto
  #  "Second tier" - improvements: -21.76 meV to - meV
  #     hydro 6 h 16.4
  #     hydro 3 p 3.6
  #     hydro 4 f 9.4
  #     hydro 5 d 7.6
  #     hydro 5 g 20.4
  #     hydro 4 s 4.3
  #  "Third tier" - max. impr. -1.69 meV, min. impr. -0.23 meV
  #     hydro 5 f 10.4
  #     hydro 6 h 21.2
  #     hydro 5 g 13.2
  #     hydro 5 g 38.8
  #     hydro 5 d 9.8
  #     hydro 2 p 1.9
  #     hydro 1 s 0.75
  #  "Fourth tier" - max. impr. -0.38 meV, min. impr. -0.17 meV
  #     hydro 6 h 22
  #     hydro 5 f 22.4
  #     hydro 5 p 10.4
  #     hydro 6 d 16
  #     hydro 7 s 11.2
  
  -----------------------------------------------------------------------
  Completed first pass over input file control.in .
  -----------------------------------------------------------------------
  
  
  -----------------------------------------------------------------------
  Parsing geometry.in (first pass over file, find array dimensions only).
  The contents of geometry.in will be repeated verbatim below
  unless switched off by setting 'verbatim_writeout .false.' .
  in the first line of geometry.in .
  -----------------------------------------------------------------------
  
  #===============================================================================
  # Created using the Atomic Simulation Environment (ASE)
  
  # Wed Jun 21 17:24:08 2023
  
  
  # Additional information:
  #  created from force constants
  #  T = 0.0 K
  #  quantum:             True
  #  deterministic:       False
  #  plus_minus:          False
  #  gauge_eigenvectors:  False
  #  Random seed:         1709739447
  #  Sample number:       1
  #  Harmonic E_pot:        0.787eV (126.80K)
  #=======================================================
  lattice_vector 8.2611990177960006 0.0000000000000000 0.0000000000000000
  lattice_vector 0.0000000000000000 9.5392109535080003 0.0000000000000000
  lattice_vector 0.0000000000000000 0.0000000000000000 8.6884866849320002
  atom 1.3356570607919507 0.8072730262932903 3.2367266849988847 Os
      velocity -0.0000000000000000 -0.0000000000000000 -0.0000000000000000
  atom 4.1464273804826650 0.7559521424925727 3.2441548866177277 Os
      velocity 0.0000000000000000 -0.0000000000000000 -0.0000000000000000
  atom 6.9017384583904668 0.8393565625157364 3.2371675650953455 Os
      velocity -0.0000000000000000 0.0000000000000000 0.0000000000000000
  atom -0.0043268231475789 3.1694039523825488 3.2526323525379257 Os
      velocity -0.0000000000000000 0.0000000000000000 -0.0000000000000000
  atom 2.7069289757132422 3.1789847128510109 3.2340755658719735 Os
      velocity -0.0000000000000000 0.0000000000000000 -0.0000000000000000
  atom 5.4830772938564838 3.2297249643814250 3.2765287237859209 Os
      velocity -0.0000000000000000 -0.0000000000000000 0.0000000000000000
  atom 6.8924463460631005 5.5545839726513186 3.2681199313474059 Os
      velocity 0.0000000000000000 0.0000000000000000 0.0000000000000000
  atom 1.3957656764723820 5.5701173290874602 3.2441776224611720 Os
      velocity 0.0000000000000000 0.0000000000000000 0.0000000000000000
  atom 4.1368502339546485 5.5443743740309390 3.3025226025110586 Os
      velocity 0.0000000000000000 -0.0000000000000000 0.0000000000000000
  atom 5.5202978695924543 7.9621500939058008 3.2272016161805941 Os
      velocity 0.0000000000000000 0.0000000000000000 -0.0000000000000000
  atom 0.0481463046639832 7.9451448618990890 3.2471568460229738 Os
      velocity -0.0000000000000000 0.0000000000000000 -0.0000000000000000
  atom 2.7609049846686902 7.9451446118697726 3.2486467209153171 Os
      velocity 0.0000000000000000 0.0000000000000000 -0.0000000000000000
  atom 1.3880662343345023 0.7577383886718593 7.6167158624327138 Os
      velocity -0.0000000000000000 0.0000000000000000 -0.0000000000000000
  atom 4.1570401741043561 0.7737243924577366 7.6124693677056037 Os
      velocity 0.0000000000000000 -0.0000000000000000 -0.0000000000000000
  atom 6.8829808303534872 0.8018505916789865 7.5982923687279769 Os
      velocity 0.0000000000000000 0.0000000000000000 0.0000000000000000
  atom 0.0371580974957670 3.1672805858015294 7.5682158212166808 Os
      velocity -0.0000000000000000 0.0000000000000000 0.0000000000000000
  atom 2.7498774007587095 3.1567487245624024 7.6148936802166753 Os
      velocity -0.0000000000000000 0.0000000000000000 -0.0000000000000000
  atom 5.5218061041595812 3.2257177767051757 7.6242010759863073 Os
      velocity 0.0000000000000000 -0.0000000000000000 -0.0000000000000000
  atom 6.8512432901129001 5.5702496986562560 7.6125319631083626 Os
      velocity -0.0000000000000000 0.0000000000000000 0.0000000000000000
  atom 1.3222930009612037 5.5262551889237104 7.6057356713998567 Os
      velocity 0.0000000000000000 0.0000000000000000 0.0000000000000000
  atom 4.1750264322608865 5.5750045862716791 7.5776268532140474 Os
      velocity -0.0000000000000000 0.0000000000000000 0.0000000000000000
  atom 5.5154476267778216 7.9585783732814770 7.5671153582536403 Os
      velocity -0.0000000000000000 0.0000000000000000 0.0000000000000000
  atom 0.0115702077010007 7.9469869572724354 7.5994543288930059 Os
      velocity -0.0000000000000000 -0.0000000000000000 0.0000000000000000
  atom 2.7515393099042664 7.9660226254209068 7.5930213118182506 Os
      velocity 0.0000000000000000 -0.0000000000000000 0.0000000000000000
  atom 8.2416730911740892 1.5750806567512747 1.1321228081401791 Os
      velocity -0.0000000000000000 -0.0000000000000000 -0.0000000000000000
  atom 2.7330993790248370 1.5658420654913023 1.0831037155941392 Os
      velocity -0.0000000000000000 0.0000000000000000 0.0000000000000000
  atom 5.5015092130732395 1.6201869254260508 1.0796257596389138 Os
      velocity -0.0000000000000000 -0.0000000000000000 0.0000000000000000
  atom 6.8598430936668517 4.0218011941948371 1.1389232218693015 Os
      velocity 0.0000000000000000 0.0000000000000000 0.0000000000000000
  atom 1.4174475402963791 3.9671079827531761 1.0806284937849104 Os
      velocity -0.0000000000000000 -0.0000000000000000 -0.0000000000000000
  atom 4.1331316856149334 3.9410822281196958 1.0648213906876975 Os
      velocity 0.0000000000000000 -0.0000000000000000 0.0000000000000000
  atom 5.4894497402966618 6.3804698650866847 1.0952246288876764 Os
      velocity 0.0000000000000000 0.0000000000000000 -0.0000000000000000
  atom 8.2755372193164387 6.3782135112860479 1.0735921174968581 Os
      velocity -0.0000000000000000 -0.0000000000000000 -0.0000000000000000
  atom 2.7422509276710429 6.3295249595452434 1.1029781960557203 Os
      velocity 0.0000000000000000 0.0000000000000000 -0.0000000000000000
  atom 4.1595506245129332 8.7274191075740610 1.0587552521297103 Os
      velocity -0.0000000000000000 -0.0000000000000000 -0.0000000000000000
  atom 6.8683218929748531 8.7538716650476562 1.0791234655976929 Os
      velocity -0.0000000000000000 -0.0000000000000000 0.0000000000000000
  atom 1.3849078764145628 8.7281682126567386 1.0813222064696426 Os
      velocity -0.0000000000000000 0.0000000000000000 0.0000000000000000
  atom 8.2773950851612632 1.6210345271954016 5.4559829910427791 Os
      velocity -0.0000000000000000 -0.0000000000000000 0.0000000000000000
  atom 2.7506944318318363 1.5733882498406608 5.4442046801764574 Os
      velocity 0.0000000000000000 0.0000000000000000 -0.0000000000000000
  atom 5.4765987282280788 1.5889261302528288 5.4858300803077826 Os
      velocity -0.0000000000000000 0.0000000000000000 0.0000000000000000
  atom 6.8516516931115063 3.9744241605798818 5.4390207928806085 Os
      velocity 0.0000000000000000 -0.0000000000000000 -0.0000000000000000
  atom 1.3497340931721498 3.9586604740089291 5.4330080898048259 Os
      velocity -0.0000000000000000 0.0000000000000000 -0.0000000000000000
  atom 4.1219924737108657 3.9797007852314374 5.4405231714219573 Os
      velocity 0.0000000000000000 0.0000000000000000 -0.0000000000000000
  atom 5.4974396621095725 6.3504783943837637 5.3591292675023059 Os
      velocity 0.0000000000000000 0.0000000000000000 -0.0000000000000000
  atom 8.2856083550709148 6.3779419535427966 5.4649515865755669 Os
      velocity -0.0000000000000000 -0.0000000000000000 0.0000000000000000
  atom 2.7621856251346051 6.3369274201140913 5.4222743049431239 Os
      velocity 0.0000000000000000 -0.0000000000000000 -0.0000000000000000
  atom 4.1367439531690007 8.7351832722379097 5.4632045292267195 Os
      velocity 0.0000000000000000 0.0000000000000000 0.0000000000000000
  atom 6.8972456054466509 8.7892904473389635 5.3982823642185194 Os
      velocity 0.0000000000000000 -0.0000000000000000 0.0000000000000000
  atom 1.3667496016046263 8.7379659079591701 5.4377321929939342 Os
      velocity -0.0000000000000000 -0.0000000000000000 0.0000000000000000
  
  -----------------------------------------------------------------------
  Completed first pass over input file geometry.in .
  -----------------------------------------------------------------------
  

  Basic array size parameters:
  | Number of species                 :        1
  | Number of atoms                   :       48
  | Number of lattice vectors         :        3
  | Max. basis fn. angular momentum   :        3
  | Max. atomic/ionic basis occupied n:        6
  | Max. number of basis fn. types    :        3
  | Max. radial fns per species/type  :       14
  | Max. logarithmic grid size        :     1485
  | Max. radial integration grid size :       72
  | Max. angular integration grid size:      302
  | Max. angular grid division number :        8
  | Radial grid for Hartree potential :     1485
  | Number of spin channels           :        1

------------------------------------------------------------
          Reading file control.in.
------------------------------------------------------------
  XC: Using PBE gradient-corrected functionals.
  Occupation type: Gaussian broadening, width =   0.200000E+00 eV.
  Convergence accuracy of self-consistent charge density:  0.1000E-05
  Convergence accuracy of forces:  0.1000E-03
  Found k-point grid:         6         6         6
  Scalar relativistic treatment of kinetic energy: on-site free-atom approximation to ZORA.
  Requested output level: MD_light
  Forces will be computed.

  Reading configuration options for species Os                  .
  | Found nuclear charge :  76.0000
  | Found atomic mass :    190.22999999999999      amu
  | Found l_max for Hartree potential  :   4
  | Found cutoff potl. onset [A], width [A], scale factor :    3.50000    1.50000    1.00000
  | Threshold for basis-dependent cutoff potential is   0.100000E-03
  | Found data for basic radial integration grid :    72 points, outermost radius =    5.000 A
  | Found multiplier for basic radial grid :   1
  | Found angular grid specification: user-specified.
  | Specified grid contains     5 separate shells.
  | Check grid settings after all constraints further below.
  | Found free-atom valence shell :  6 s   2.000
  | Found free-atom valence shell :  5 p   6.000
  | Found free-atom valence shell :  5 d   6.000
  | Found free-atom valence shell :  4 f  14.000
  | Found free-ion valence shell :  6 s   1.000
  | Found free-ion valence shell :  5 p   6.000
  | Found free-ion valence shell :  5 d   5.000
  | Found free-ion valence shell :  4 f  14.000
  | Found hydrogenic basis function :  4 f   8.200
  | Found ionic basis function :  6 p , default cutoff radius.
  | Found ionic basis function :  5 d , default cutoff radius.
  | Found ionic basis function :  6 s , default cutoff radius.
  Species Os                  : Missing cutoff potential type.
  Defaulting to exp(1/x)/(1-x)^2 type cutoff potential.
  Species Os: No 'logarithmic' tag. Using default grid for free atom:
  | Default logarithmic grid data [bohr] : 0.1000E-03 0.1000E+03 0.1012E+01
  | Will include ionic basis functions of  2.0-fold positive Os                   ion.
  Species Os: On-site basis accuracy parameter (for Gram-Schmidt orthonormalisation) not specified.
  Using default value basis_acc =  0.1000000E-03.
  Species Os                  : Using default innermost maximum threshold i_radial=  2 for radial functions.
  Species Os                  : Default cutoff onset for free atom density etc. : 0.35000000E+01 AA.
  Species Os                  : Basic radial grid will be enhanced according to radial_multiplier =   1, to contain    72 grid points.

  Finished reading input file 'control.in'.

------------------------------------------------------------


------------------------------------------------------------
          Reading geometry description geometry.in.
------------------------------------------------------------
  * WARNING: Ignoring velocity specification in geometry.in without MD request.
  * WARNING: Ignoring velocity specification in geometry.in without MD request.
  * WARNING: Ignoring velocity specification in geometry.in without MD request.
  * WARNING: Ignoring velocity specification in geometry.in without MD request.
  * WARNING: Ignoring velocity specification in geometry.in without MD request.
  * WARNING: Ignoring velocity specification in geometry.in without MD request.
  * WARNING: Ignoring velocity specification in geometry.in without MD request.
  * WARNING: Ignoring velocity specification in geometry.in without MD request.
  * WARNING: Ignoring velocity specification in geometry.in without MD request.
  * WARNING: Ignoring velocity specification in geometry.in without MD request.
  * WARNING: Ignoring velocity specification in geometry.in without MD request.
  * WARNING: Ignoring velocity specification in geometry.in without MD request.
  * WARNING: Ignoring velocity specification in geometry.in without MD request.
  * WARNING: Ignoring velocity specification in geometry.in without MD request.
  * WARNING: Ignoring velocity specification in geometry.in without MD request.
  * WARNING: Ignoring velocity specification in geometry.in without MD request.
  * WARNING: Ignoring velocity specification in geometry.in without MD request.
  * WARNING: Ignoring velocity specification in geometry.in without MD request.
  * WARNING: Ignoring velocity specification in geometry.in without MD request.
  * WARNING: Ignoring velocity specification in geometry.in without MD request.
  * WARNING: Ignoring velocity specification in geometry.in without MD request.
  * WARNING: Ignoring velocity specification in geometry.in without MD request.
  * WARNING: Ignoring velocity specification in geometry.in without MD request.
  * WARNING: Ignoring velocity specification in geometry.in without MD request.
  * WARNING: Ignoring velocity specification in geometry.in without MD request.
  * WARNING: Ignoring velocity specification in geometry.in without MD request.
  * WARNING: Ignoring velocity specification in geometry.in without MD request.
  * WARNING: Ignoring velocity specification in geometry.in without MD request.
  * WARNING: Ignoring velocity specification in geometry.in without MD request.
  * WARNING: Ignoring velocity specification in geometry.in without MD request.
  * WARNING: Ignoring velocity specification in geometry.in without MD request.
  * WARNING: Ignoring velocity specification in geometry.in without MD request.
  * WARNING: Ignoring velocity specification in geometry.in without MD request.
  * WARNING: Ignoring velocity specification in geometry.in without MD request.
  * WARNING: Ignoring velocity specification in geometry.in without MD request.
  * WARNING: Ignoring velocity specification in geometry.in without MD request.
  * WARNING: Ignoring velocity specification in geometry.in without MD request.
  * WARNING: Ignoring velocity specification in geometry.in without MD request.
  * WARNING: Ignoring velocity specification in geometry.in without MD request.
  * WARNING: Ignoring velocity specification in geometry.in without MD request.
  * WARNING: Ignoring velocity specification in geometry.in without MD request.
  * WARNING: Ignoring velocity specification in geometry.in without MD request.
  * WARNING: Ignoring velocity specification in geometry.in without MD request.
  * WARNING: Ignoring velocity specification in geometry.in without MD request.
  * WARNING: Ignoring velocity specification in geometry.in without MD request.
  * WARNING: Ignoring velocity specification in geometry.in without MD request.
  * WARNING: Ignoring velocity specification in geometry.in without MD request.
  * WARNING: Ignoring velocity specification in geometry.in without MD request.
  | The smallest distance between any two atoms is         2.59434737 AA.
  | The first atom of this pair is atom number                     43 .
  | The second atom of this pair is atom number                     9 .
  | Wigner-Seitz cell of the first atom image           0     0     1 .
  | (The Wigner-Seitz cell of the second atom is 0 0 0  by definition.)

  Symmetry information by spglib:
  | Precision set to  0.1E-04
  | Number of Operations  : 1
  | Space group           : 1
  | International         : P1
  | Schoenflies           : C1^1
  Input structure read successfully.
  The structure contains       48 atoms,  and a total of       3648.000 electrons.

  Input geometry:
  | Unit cell:
  |        8.26119902        0.00000000        0.00000000
  |        0.00000000        9.53921095        0.00000000
  |        0.00000000        0.00000000        8.68848668
  | Atomic structure:
  |       Atom                x [A]            y [A]            z [A]
  |    1: Species Os            1.33565706        0.80727303        3.23672668
  |    2: Species Os            4.14642738        0.75595214        3.24415489
  |    3: Species Os            6.90173846        0.83935656        3.23716757
  |    4: Species Os           -0.00432682        3.16940395        3.25263235
  |    5: Species Os            2.70692898        3.17898471        3.23407557
  |    6: Species Os            5.48307729        3.22972496        3.27652872
  |    7: Species Os            6.89244635        5.55458397        3.26811993
  |    8: Species Os            1.39576568        5.57011733        3.24417762
  |    9: Species Os            4.13685023        5.54437437        3.30252260
  |   10: Species Os            5.52029787        7.96215009        3.22720162
  |   11: Species Os            0.04814630        7.94514486        3.24715685
  |   12: Species Os            2.76090498        7.94514461        3.24864672
  |   13: Species Os            1.38806623        0.75773839        7.61671586
  |   14: Species Os            4.15704017        0.77372439        7.61246937
  |   15: Species Os            6.88298083        0.80185059        7.59829237
  |   16: Species Os            0.03715810        3.16728059        7.56821582
  |   17: Species Os            2.74987740        3.15674872        7.61489368
  |   18: Species Os            5.52180610        3.22571778        7.62420108
  |   19: Species Os            6.85124329        5.57024970        7.61253196
  |   20: Species Os            1.32229300        5.52625519        7.60573567
  |   21: Species Os            4.17502643        5.57500459        7.57762685
  |   22: Species Os            5.51544763        7.95857837        7.56711536
  |   23: Species Os            0.01157021        7.94698696        7.59945433
  |   24: Species Os            2.75153931        7.96602263        7.59302131
  |   25: Species Os            8.24167309        1.57508066        1.13212281
  |   26: Species Os            2.73309938        1.56584207        1.08310372
  |   27: Species Os            5.50150921        1.62018693        1.07962576
  |   28: Species Os            6.85984309        4.02180119        1.13892322
  |   29: Species Os            1.41744754        3.96710798        1.08062849
  |   30: Species Os            4.13313169        3.94108223        1.06482139
  |   31: Species Os            5.48944974        6.38046987        1.09522463
  |   32: Species Os            8.27553722        6.37821351        1.07359212
  |   33: Species Os            2.74225093        6.32952496        1.10297820
  |   34: Species Os            4.15955062        8.72741911        1.05875525
  |   35: Species Os            6.86832189        8.75387167        1.07912347
  |   36: Species Os            1.38490788        8.72816821        1.08132221
  |   37: Species Os            8.27739509        1.62103453        5.45598299
  |   38: Species Os            2.75069443        1.57338825        5.44420468
  |   39: Species Os            5.47659873        1.58892613        5.48583008
  |   40: Species Os            6.85165169        3.97442416        5.43902079
  |   41: Species Os            1.34973409        3.95866047        5.43300809
  |   42: Species Os            4.12199247        3.97970079        5.44052317
  |   43: Species Os            5.49743966        6.35047839        5.35912927
  |   44: Species Os            8.28560836        6.37794195        5.46495159
  |   45: Species Os            2.76218563        6.33692742        5.42227430
  |   46: Species Os            4.13674395        8.73518327        5.46320453
  |   47: Species Os            6.89724561        8.78929045        5.39828236
  |   48: Species Os            1.36674960        8.73796591        5.43773219

  Lattice parameters for 3D lattice (in Angstroms) :     8.261199    9.539211    8.688487
  Angle(s) between unit vectors (in degrees)       :    90.000000   90.000000   90.000000


  Quantities derived from the lattice vectors (in Angstrom^-1):
  | Reciprocal lattice vector 1:  0.760566  0.000000  0.000000
  | Reciprocal lattice vector 2:  0.000000  0.658669  0.000000
  | Reciprocal lattice vector 3:  0.000000  0.000000  0.723162
  | Unit cell volume                               :   0.684699E+03  Angstrom^3


  Finished reading input file 'geometry.in'.



  Consistency checks for stacksize environment parameter are next.

  | Maximum stacksize for task 0: unlimited
  | Maximum stacksize for task 1: unlimited
  | Maximum stacksize for task 2: unlimited
  | Maximum stacksize for task 3: unlimited
  | Maximum stacksize for task 4: unlimited
  | Maximum stacksize for task 5: unlimited
  | Maximum stacksize for task 6: unlimited
  | Maximum stacksize for task 7: unlimited
  | Maximum stacksize for task 8: unlimited
  | Maximum stacksize for task 9: unlimited
  | Maximum stacksize for task 10: unlimited
  | Maximum stacksize for task 11: unlimited
  | Maximum stacksize for task 12: unlimited
  | Maximum stacksize for task 13: unlimited
  | Maximum stacksize for task 14: unlimited
  | Maximum stacksize for task 15: unlimited
  | Maximum stacksize for task 16: unlimited
  | Maximum stacksize for task 17: unlimited
  | Maximum stacksize for task 18: unlimited
  | Maximum stacksize for task 19: unlimited
  | Maximum stacksize for task 20: unlimited
  | Maximum stacksize for task 21: unlimited
  | Maximum stacksize for task 22: unlimited
  | Maximum stacksize for task 23: unlimited
  | Maximum stacksize for task 24: unlimited
  | Maximum stacksize for task 25: unlimited
  | Maximum stacksize for task 26: unlimited
  | Maximum stacksize for task 27: unlimited
  | Maximum stacksize for task 28: unlimited
  | Maximum stacksize for task 29: unlimited
  | Maximum stacksize for task 30: unlimited
  | Maximum stacksize for task 31: unlimited
  | Maximum stacksize for task 32: unlimited
  | Maximum stacksize for task 33: unlimited
  | Maximum stacksize for task 34: unlimited
  | Maximum stacksize for task 35: unlimited
  | Maximum stacksize for task 36: unlimited
  | Maximum stacksize for task 37: unlimited
  | Maximum stacksize for task 38: unlimited
  | Maximum stacksize for task 39: unlimited
  | Maximum stacksize for task 40: unlimited
  | Maximum stacksize for task 41: unlimited
  | Maximum stacksize for task 42: unlimited
  | Maximum stacksize for task 43: unlimited
  | Maximum stacksize for task 44: unlimited
  | Maximum stacksize for task 45: unlimited
  | Maximum stacksize for task 46: unlimited
  | Maximum stacksize for task 47: unlimited
  | Maximum stacksize for task 48: unlimited
  | Maximum stacksize for task 49: unlimited
  | Maximum stacksize for task 50: unlimited
  | Maximum stacksize for task 51: unlimited
  | Maximum stacksize for task 52: unlimited
  | Maximum stacksize for task 53: unlimited
  | Maximum stacksize for task 54: unlimited
  | Maximum stacksize for task 55: unlimited
  | Maximum stacksize for task 56: unlimited
  | Maximum stacksize for task 57: unlimited
  | Maximum stacksize for task 58: unlimited
  | Maximum stacksize for task 59: unlimited
  | Maximum stacksize for task 60: unlimited
  | Maximum stacksize for task 61: unlimited
  | Maximum stacksize for task 62: unlimited
  | Maximum stacksize for task 63: unlimited
  | Maximum stacksize for task 64: unlimited
  | Maximum stacksize for task 65: unlimited
  | Maximum stacksize for task 66: unlimited
  | Maximum stacksize for task 67: unlimited
  | Maximum stacksize for task 68: unlimited
  | Maximum stacksize for task 69: unlimited
  | Maximum stacksize for task 70: unlimited
  | Maximum stacksize for task 71: unlimited
  | Maximum stacksize for task 72: unlimited
  | Maximum stacksize for task 73: unlimited
  | Maximum stacksize for task 74: unlimited
  | Maximum stacksize for task 75: unlimited
  | Maximum stacksize for task 76: unlimited
  | Maximum stacksize for task 77: unlimited
  | Maximum stacksize for task 78: unlimited
  | Maximum stacksize for task 79: unlimited
  | Maximum stacksize for task 80: unlimited
  | Maximum stacksize for task 81: unlimited
  | Maximum stacksize for task 82: unlimited
  | Maximum stacksize for task 83: unlimited
  | Maximum stacksize for task 84: unlimited
  | Maximum stacksize for task 85: unlimited
  | Maximum stacksize for task 86: unlimited
  | Maximum stacksize for task 87: unlimited
  | Maximum stacksize for task 88: unlimited
  | Maximum stacksize for task 89: unlimited
  | Maximum stacksize for task 90: unlimited
  | Maximum stacksize for task 91: unlimited
  | Maximum stacksize for task 92: unlimited
  | Maximum stacksize for task 93: unlimited
  | Maximum stacksize for task 94: unlimited
  | Maximum stacksize for task 95: unlimited
  | Maximum stacksize for task 96: unlimited
  | Maximum stacksize for task 97: unlimited
  | Maximum stacksize for task 98: unlimited
  | Maximum stacksize for task 99: unlimited
  | Maximum stacksize for task 100: unlimited
  | Maximum stacksize for task 101: unlimited
  | Maximum stacksize for task 102: unlimited
  | Maximum stacksize for task 103: unlimited
  | Maximum stacksize for task 104: unlimited
  | Maximum stacksize for task 105: unlimited
  | Maximum stacksize for task 106: unlimited
  | Maximum stacksize for task 107: unlimited
  | Maximum stacksize for task 108: unlimited
  | Maximum stacksize for task 109: unlimited
  | Maximum stacksize for task 110: unlimited
  | Maximum stacksize for task 111: unlimited
  | Maximum stacksize for task 112: unlimited
  | Maximum stacksize for task 113: unlimited
  | Maximum stacksize for task 114: unlimited
  | Maximum stacksize for task 115: unlimited
  | Maximum stacksize for task 116: unlimited
  | Maximum stacksize for task 117: unlimited
  | Maximum stacksize for task 118: unlimited
  | Maximum stacksize for task 119: unlimited
  | Maximum stacksize for task 120: unlimited
  | Maximum stacksize for task 121: unlimited
  | Maximum stacksize for task 122: unlimited
  | Maximum stacksize for task 123: unlimited
  | Maximum stacksize for task 124: unlimited
  | Maximum stacksize for task 125: unlimited
  | Maximum stacksize for task 126: unlimited
  | Maximum stacksize for task 127: unlimited
  | Maximum stacksize for task 128: unlimited
  | Maximum stacksize for task 129: unlimited
  | Maximum stacksize for task 130: unlimited
  | Maximum stacksize for task 131: unlimited
  | Maximum stacksize for task 132: unlimited
  | Maximum stacksize for task 133: unlimited
  | Maximum stacksize for task 134: unlimited
  | Maximum stacksize for task 135: unlimited
  | Maximum stacksize for task 136: unlimited
  | Maximum stacksize for task 137: unlimited
  | Maximum stacksize for task 138: unlimited
  | Maximum stacksize for task 139: unlimited
  | Maximum stacksize for task 140: unlimited
  | Maximum stacksize for task 141: unlimited
  | Maximum stacksize for task 142: unlimited
  | Maximum stacksize for task 143: unlimited
  | Maximum stacksize for task 144: unlimited
  | Maximum stacksize for task 145: unlimited
  | Maximum stacksize for task 146: unlimited
  | Maximum stacksize for task 147: unlimited
  | Maximum stacksize for task 148: unlimited
  | Maximum stacksize for task 149: unlimited
  | Maximum stacksize for task 150: unlimited
  | Maximum stacksize for task 151: unlimited
  | Maximum stacksize for task 152: unlimited
  | Maximum stacksize for task 153: unlimited
  | Maximum stacksize for task 154: unlimited
  | Maximum stacksize for task 155: unlimited
  | Maximum stacksize for task 156: unlimited
  | Maximum stacksize for task 157: unlimited
  | Maximum stacksize for task 158: unlimited
  | Maximum stacksize for task 159: unlimited
  | Maximum stacksize for task 160: unlimited
  | Maximum stacksize for task 161: unlimited
  | Maximum stacksize for task 162: unlimited
  | Maximum stacksize for task 163: unlimited
  | Maximum stacksize for task 164: unlimited
  | Maximum stacksize for task 165: unlimited
  | Maximum stacksize for task 166: unlimited
  | Maximum stacksize for task 167: unlimited
  | Maximum stacksize for task 168: unlimited
  | Maximum stacksize for task 169: unlimited
  | Maximum stacksize for task 170: unlimited
  | Maximum stacksize for task 171: unlimited
  | Maximum stacksize for task 172: unlimited
  | Maximum stacksize for task 173: unlimited
  | Maximum stacksize for task 174: unlimited
  | Maximum stacksize for task 175: unlimited
  | Maximum stacksize for task 176: unlimited
  | Maximum stacksize for task 177: unlimited
  | Maximum stacksize for task 178: unlimited
  | Maximum stacksize for task 179: unlimited
  | Maximum stacksize for task 180: unlimited
  | Maximum stacksize for task 181: unlimited
  | Maximum stacksize for task 182: unlimited
  | Maximum stacksize for task 183: unlimited
  | Maximum stacksize for task 184: unlimited
  | Maximum stacksize for task 185: unlimited
  | Maximum stacksize for task 186: unlimited
  | Maximum stacksize for task 187: unlimited
  | Maximum stacksize for task 188: unlimited
  | Maximum stacksize for task 189: unlimited
  | Maximum stacksize for task 190: unlimited
  | Maximum stacksize for task 191: unlimited
  | Maximum stacksize for task 192: unlimited
  | Maximum stacksize for task 193: unlimited
  | Maximum stacksize for task 194: unlimited
  | Maximum stacksize for task 195: unlimited
  | Maximum stacksize for task 196: unlimited
  | Maximum stacksize for task 197: unlimited
  | Maximum stacksize for task 198: unlimited
  | Maximum stacksize for task 199: unlimited
  | Maximum stacksize for task 200: unlimited
  | Maximum stacksize for task 201: unlimited
  | Maximum stacksize for task 202: unlimited
  | Maximum stacksize for task 203: unlimited
  | Maximum stacksize for task 204: unlimited
  | Maximum stacksize for task 205: unlimited
  | Maximum stacksize for task 206: unlimited
  | Maximum stacksize for task 207: unlimited
  | Maximum stacksize for task 208: unlimited
  | Maximum stacksize for task 209: unlimited
  | Maximum stacksize for task 210: unlimited
  | Maximum stacksize for task 211: unlimited
  | Maximum stacksize for task 212: unlimited
  | Maximum stacksize for task 213: unlimited
  | Maximum stacksize for task 214: unlimited
  | Maximum stacksize for task 215: unlimited
  | Maximum stacksize for task 216: unlimited
  | Maximum stacksize for task 217: unlimited
  | Maximum stacksize for task 218: unlimited
  | Maximum stacksize for task 219: unlimited
  | Maximum stacksize for task 220: unlimited
  | Maximum stacksize for task 221: unlimited
  | Maximum stacksize for task 222: unlimited
  | Maximum stacksize for task 223: unlimited
  | Maximum stacksize for task 224: unlimited
  | Maximum stacksize for task 225: unlimited
  | Maximum stacksize for task 226: unlimited
  | Maximum stacksize for task 227: unlimited
  | Maximum stacksize for task 228: unlimited
  | Maximum stacksize for task 229: unlimited
  | Maximum stacksize for task 230: unlimited
  | Maximum stacksize for task 231: unlimited
  | Maximum stacksize for task 232: unlimited
  | Maximum stacksize for task 233: unlimited
  | Maximum stacksize for task 234: unlimited
  | Maximum stacksize for task 235: unlimited
  | Maximum stacksize for task 236: unlimited
  | Maximum stacksize for task 237: unlimited
  | Maximum stacksize for task 238: unlimited
  | Maximum stacksize for task 239: unlimited
  | Maximum stacksize for task 240: unlimited
  | Maximum stacksize for task 241: unlimited
  | Maximum stacksize for task 242: unlimited
  | Maximum stacksize for task 243: unlimited
  | Maximum stacksize for task 244: unlimited
  | Maximum stacksize for task 245: unlimited
  | Maximum stacksize for task 246: unlimited
  | Maximum stacksize for task 247: unlimited
  | Maximum stacksize for task 248: unlimited
  | Maximum stacksize for task 249: unlimited
  | Maximum stacksize for task 250: unlimited
  | Maximum stacksize for task 251: unlimited
  | Maximum stacksize for task 252: unlimited
  | Maximum stacksize for task 253: unlimited
  | Maximum stacksize for task 254: unlimited
  | Maximum stacksize for task 255: unlimited
  | Current stacksize for task 0: unlimited
  | Current stacksize for task 1: unlimited
  | Current stacksize for task 2: unlimited
  | Current stacksize for task 3: unlimited
  | Current stacksize for task 4: unlimited
  | Current stacksize for task 5: unlimited
  | Current stacksize for task 6: unlimited
  | Current stacksize for task 7: unlimited
  | Current stacksize for task 8: unlimited
  | Current stacksize for task 9: unlimited
  | Current stacksize for task 10: unlimited
  | Current stacksize for task 11: unlimited
  | Current stacksize for task 12: unlimited
  | Current stacksize for task 13: unlimited
  | Current stacksize for task 14: unlimited
  | Current stacksize for task 15: unlimited
  | Current stacksize for task 16: unlimited
  | Current stacksize for task 17: unlimited
  | Current stacksize for task 18: unlimited
  | Current stacksize for task 19: unlimited
  | Current stacksize for task 20: unlimited
  | Current stacksize for task 21: unlimited
  | Current stacksize for task 22: unlimited
  | Current stacksize for task 23: unlimited
  | Current stacksize for task 24: unlimited
  | Current stacksize for task 25: unlimited
  | Current stacksize for task 26: unlimited
  | Current stacksize for task 27: unlimited
  | Current stacksize for task 28: unlimited
  | Current stacksize for task 29: unlimited
  | Current stacksize for task 30: unlimited
  | Current stacksize for task 31: unlimited
  | Current stacksize for task 32: unlimited
  | Current stacksize for task 33: unlimited
  | Current stacksize for task 34: unlimited
  | Current stacksize for task 35: unlimited
  | Current stacksize for task 36: unlimited
  | Current stacksize for task 37: unlimited
  | Current stacksize for task 38: unlimited
  | Current stacksize for task 39: unlimited
  | Current stacksize for task 40: unlimited
  | Current stacksize for task 41: unlimited
  | Current stacksize for task 42: unlimited
  | Current stacksize for task 43: unlimited
  | Current stacksize for task 44: unlimited
  | Current stacksize for task 45: unlimited
  | Current stacksize for task 46: unlimited
  | Current stacksize for task 47: unlimited
  | Current stacksize for task 48: unlimited
  | Current stacksize for task 49: unlimited
  | Current stacksize for task 50: unlimited
  | Current stacksize for task 51: unlimited
  | Current stacksize for task 52: unlimited
  | Current stacksize for task 53: unlimited
  | Current stacksize for task 54: unlimited
  | Current stacksize for task 55: unlimited
  | Current stacksize for task 56: unlimited
  | Current stacksize for task 57: unlimited
  | Current stacksize for task 58: unlimited
  | Current stacksize for task 59: unlimited
  | Current stacksize for task 60: unlimited
  | Current stacksize for task 61: unlimited
  | Current stacksize for task 62: unlimited
  | Current stacksize for task 63: unlimited
  | Current stacksize for task 64: unlimited
  | Current stacksize for task 65: unlimited
  | Current stacksize for task 66: unlimited
  | Current stacksize for task 67: unlimited
  | Current stacksize for task 68: unlimited
  | Current stacksize for task 69: unlimited
  | Current stacksize for task 70: unlimited
  | Current stacksize for task 71: unlimited
  | Current stacksize for task 72: unlimited
  | Current stacksize for task 73: unlimited
  | Current stacksize for task 74: unlimited
  | Current stacksize for task 75: unlimited
  | Current stacksize for task 76: unlimited
  | Current stacksize for task 77: unlimited
  | Current stacksize for task 78: unlimited
  | Current stacksize for task 79: unlimited
  | Current stacksize for task 80: unlimited
  | Current stacksize for task 81: unlimited
  | Current stacksize for task 82: unlimited
  | Current stacksize for task 83: unlimited
  | Current stacksize for task 84: unlimited
  | Current stacksize for task 85: unlimited
  | Current stacksize for task 86: unlimited
  | Current stacksize for task 87: unlimited
  | Current stacksize for task 88: unlimited
  | Current stacksize for task 89: unlimited
  | Current stacksize for task 90: unlimited
  | Current stacksize for task 91: unlimited
  | Current stacksize for task 92: unlimited
  | Current stacksize for task 93: unlimited
  | Current stacksize for task 94: unlimited
  | Current stacksize for task 95: unlimited
  | Current stacksize for task 96: unlimited
  | Current stacksize for task 97: unlimited
  | Current stacksize for task 98: unlimited
  | Current stacksize for task 99: unlimited
  | Current stacksize for task 100: unlimited
  | Current stacksize for task 101: unlimited
  | Current stacksize for task 102: unlimited
  | Current stacksize for task 103: unlimited
  | Current stacksize for task 104: unlimited
  | Current stacksize for task 105: unlimited
  | Current stacksize for task 106: unlimited
  | Current stacksize for task 107: unlimited
  | Current stacksize for task 108: unlimited
  | Current stacksize for task 109: unlimited
  | Current stacksize for task 110: unlimited
  | Current stacksize for task 111: unlimited
  | Current stacksize for task 112: unlimited
  | Current stacksize for task 113: unlimited
  | Current stacksize for task 114: unlimited
  | Current stacksize for task 115: unlimited
  | Current stacksize for task 116: unlimited
  | Current stacksize for task 117: unlimited
  | Current stacksize for task 118: unlimited
  | Current stacksize for task 119: unlimited
  | Current stacksize for task 120: unlimited
  | Current stacksize for task 121: unlimited
  | Current stacksize for task 122: unlimited
  | Current stacksize for task 123: unlimited
  | Current stacksize for task 124: unlimited
  | Current stacksize for task 125: unlimited
  | Current stacksize for task 126: unlimited
  | Current stacksize for task 127: unlimited
  | Current stacksize for task 128: unlimited
  | Current stacksize for task 129: unlimited
  | Current stacksize for task 130: unlimited
  | Current stacksize for task 131: unlimited
  | Current stacksize for task 132: unlimited
  | Current stacksize for task 133: unlimited
  | Current stacksize for task 134: unlimited
  | Current stacksize for task 135: unlimited
  | Current stacksize for task 136: unlimited
  | Current stacksize for task 137: unlimited
  | Current stacksize for task 138: unlimited
  | Current stacksize for task 139: unlimited
  | Current stacksize for task 140: unlimited
  | Current stacksize for task 141: unlimited
  | Current stacksize for task 142: unlimited
  | Current stacksize for task 143: unlimited
  | Current stacksize for task 144: unlimited
  | Current stacksize for task 145: unlimited
  | Current stacksize for task 146: unlimited
  | Current stacksize for task 147: unlimited
  | Current stacksize for task 148: unlimited
  | Current stacksize for task 149: unlimited
  | Current stacksize for task 150: unlimited
  | Current stacksize for task 151: unlimited
  | Current stacksize for task 152: unlimited
  | Current stacksize for task 153: unlimited
  | Current stacksize for task 154: unlimited
  | Current stacksize for task 155: unlimited
  | Current stacksize for task 156: unlimited
  | Current stacksize for task 157: unlimited
  | Current stacksize for task 158: unlimited
  | Current stacksize for task 159: unlimited
  | Current stacksize for task 160: unlimited
  | Current stacksize for task 161: unlimited
  | Current stacksize for task 162: unlimited
  | Current stacksize for task 163: unlimited
  | Current stacksize for task 164: unlimited
  | Current stacksize for task 165: unlimited
  | Current stacksize for task 166: unlimited
  | Current stacksize for task 167: unlimited
  | Current stacksize for task 168: unlimited
  | Current stacksize for task 169: unlimited
  | Current stacksize for task 170: unlimited
  | Current stacksize for task 171: unlimited
  | Current stacksize for task 172: unlimited
  | Current stacksize for task 173: unlimited
  | Current stacksize for task 174: unlimited
  | Current stacksize for task 175: unlimited
  | Current stacksize for task 176: unlimited
  | Current stacksize for task 177: unlimited
  | Current stacksize for task 178: unlimited
  | Current stacksize for task 179: unlimited
  | Current stacksize for task 180: unlimited
  | Current stacksize for task 181: unlimited
  | Current stacksize for task 182: unlimited
  | Current stacksize for task 183: unlimited
  | Current stacksize for task 184: unlimited
  | Current stacksize for task 185: unlimited
  | Current stacksize for task 186: unlimited
  | Current stacksize for task 187: unlimited
  | Current stacksize for task 188: unlimited
  | Current stacksize for task 189: unlimited
  | Current stacksize for task 190: unlimited
  | Current stacksize for task 191: unlimited
  | Current stacksize for task 192: unlimited
  | Current stacksize for task 193: unlimited
  | Current stacksize for task 194: unlimited
  | Current stacksize for task 195: unlimited
  | Current stacksize for task 196: unlimited
  | Current stacksize for task 197: unlimited
  | Current stacksize for task 198: unlimited
  | Current stacksize for task 199: unlimited
  | Current stacksize for task 200: unlimited
  | Current stacksize for task 201: unlimited
  | Current stacksize for task 202: unlimited
  | Current stacksize for task 203: unlimited
  | Current stacksize for task 204: unlimited
  | Current stacksize for task 205: unlimited
  | Current stacksize for task 206: unlimited
  | Current stacksize for task 207: unlimited
  | Current stacksize for task 208: unlimited
  | Current stacksize for task 209: unlimited
  | Current stacksize for task 210: unlimited
  | Current stacksize for task 211: unlimited
  | Current stacksize for task 212: unlimited
  | Current stacksize for task 213: unlimited
  | Current stacksize for task 214: unlimited
  | Current stacksize for task 215: unlimited
  | Current stacksize for task 216: unlimited
  | Current stacksize for task 217: unlimited
  | Current stacksize for task 218: unlimited
  | Current stacksize for task 219: unlimited
  | Current stacksize for task 220: unlimited
  | Current stacksize for task 221: unlimited
  | Current stacksize for task 222: unlimited
  | Current stacksize for task 223: unlimited
  | Current stacksize for task 224: unlimited
  | Current stacksize for task 225: unlimited
  | Current stacksize for task 226: unlimited
  | Current stacksize for task 227: unlimited
  | Current stacksize for task 228: unlimited
  | Current stacksize for task 229: unlimited
  | Current stacksize for task 230: unlimited
  | Current stacksize for task 231: unlimited
  | Current stacksize for task 232: unlimited
  | Current stacksize for task 233: unlimited
  | Current stacksize for task 234: unlimited
  | Current stacksize for task 235: unlimited
  | Current stacksize for task 236: unlimited
  | Current stacksize for task 237: unlimited
  | Current stacksize for task 238: unlimited
  | Current stacksize for task 239: unlimited
  | Current stacksize for task 240: unlimited
  | Current stacksize for task 241: unlimited
  | Current stacksize for task 242: unlimited
  | Current stacksize for task 243: unlimited
  | Current stacksize for task 244: unlimited
  | Current stacksize for task 245: unlimited
  | Current stacksize for task 246: unlimited
  | Current stacksize for task 247: unlimited
  | Current stacksize for task 248: unlimited
  | Current stacksize for task 249: unlimited
  | Current stacksize for task 250: unlimited
  | Current stacksize for task 251: unlimited
  | Current stacksize for task 252: unlimited
  | Current stacksize for task 253: unlimited
  | Current stacksize for task 254: unlimited
  | Current stacksize for task 255: unlimited

  Consistency checks for the contents of control.in are next.

  MPI_IN_PLACE appears to work with this MPI implementation.
  | Keeping use_mpi_in_place .true. (see manual).
  Target number of points in a grid batch is not set. Defaulting to  100
  Method for grid partitioning is not set. Defaulting to parallel hash+maxmin partitioning.
  Batch size limit is not set. Defaulting to    200
  By default, will store active basis functions for each batch.
  If in need of memory, prune_basis_once .false. can be used to disable this option.
  communication_type for Hartree potential was not specified.
  Defaulting to calc_hartree .
  Defaulting to Pulay charge density mixer.
  Pulay mixer: Number of relevant iterations not set.
  Defaulting to    8 iterations.
  Pulay mixer: Number of initial linear mixing iterations not set.
  Defaulting to    0 iterations.
  Work space size for distributed Hartree potential not set.
  Defaulting to   0.200000E+03 MB.
  Mixing parameter for charge density mixing has not been set.
  Using default: charge_mix_param =     0.0500.
  The mixing parameter will be adjusted in iteration number     2 of the first full s.c.f. cycle only.
  Algorithm-dependent basis array size parameters:
  | n_max_pulay                         :        8
  Maximum number of self-consistency iterations not provided.
  Presetting  1000 iterations.
  Presetting      1001 iterations before the initial mixing cycle
  is restarted anyway using the sc_init_iter criterion / keyword.
  Presetting a factor      1.000 between actual scf density residual
  and density convergence criterion sc_accuracy_rho below which sc_init_iter
  takes no effect.
  Geometry relaxation not requested: no relaxation will be performed.
  Analytical stress will be computed.
  Analytical stress calculation: Only the upper triangle is calculated.
                                 Final output is symmetrized.
  Analytical stress calculation: scf convergence accuracy of stress not set.
                                 Analytical stress self-consistency will not be checked explicitly.
                                 Be sure to set other criteria like sc_accuracy_rho tight enough.
  Forces evaluation will include force correction term due to incomplete self-consistency (default).
  Handling of forces: Unphysical translation and rotation will be removed from forces.
  No accuracy limit for integral partition fn. given. Defaulting to  0.1000E-14.
  No threshold value for u(r) in integrations given. Defaulting to  0.1000E-05.
  No accuracy for occupation numbers given. Defaulting to  0.1000E-12.
  No threshold value for occupation numbers given. Defaulting to  0.0000E+00.
  No accuracy for fermi level given. Defaulting to  0.1000E-19.
  Maximum # of iterations to find E_F not set. Defaulting to  200.
  Preferred method for the eigenvalue solver ('KS_method') not specified in 'control.in'.
  Calling BLACS routine to test compilation state
  Since ScaLAPACK support is enabled, defaulting to ELPA (via ELSI).
  Will not use alltoall communication since running on < 1024 CPUs.
  Threshold for basis singularities not set.
  Default threshold for basis singularities:  0.1000E-04
  partition_type (choice of integration weights) for integrals was not specified.
  | Using a version of the partition function of Stratmann and coworkers ('stratmann_sparse').
  | At each grid point, the set of atoms used to build the partition table is smoothly restricted to
  | only those atoms whose free-atom density would be non-zero at that grid point.
  Partitioning for Hartree potential was not defined. Using partition_type for integrals.
  | Adjusted default value of keyword multip_moments_threshold to:       0.10000000E-11
  | This value may affect high angular momentum components of the Hartree potential in periodic systems.
  Spin handling was not defined in control.in. Defaulting to unpolarized case.
  Angular momentum expansion for Kerker preconditioner not set explicitly.
  | Using default value of   0
  No explicit requirement for turning off preconditioner.
  | By default, it will be turned off when the charge convergence reaches
  | sc_accuracy_rho  =   0.100000E-05
  No special mixing parameter while Kerker preconditioner is on.
  Using default: charge_mix_param =     0.0500.
  No q(lm)/r^(l+1) cutoff set for long-range Hartree potential.
  | Using default value of  0.100000E-09 .
  | Verify using the multipole_threshold keyword.
  Defaulting to new monopole extrapolation.
  Density update method: automatic selection selected.
  Using density matrix based charge density update.
  Using density matrix based charge density update.
  Using packed matrix style: index .
  Defaulting to use time-reversal symmetry for k-point grid.
  Charge integration errors on the 3D integration grid will be compensated
  by explicit normalization and distribution of residual charges.
  Use the "compensate_multipole_errors" flag to change this behaviour.

  Consistency checks for the contents of geometry.in are next.


  Range separation radius for Ewald summation (hartree_convergence_parameter):      3.42476306 bohr.
  Number of empty states per atom not set in control.in - providing a guess from actual geometry.
  | Total number of empty states used during s.c.f. cycle:      432
  If you use a very high smearing, use empty_states (per atom!) in control.in to increase this value.

  Structure-dependent array size parameters: 
  | Maximum number of distinct radial functions  :       18
  | Maximum number of basis functions            :     2688
  | Number of Kohn-Sham states (occupied + empty):     2256
------------------------------------------------------------

------------------------------------------------------------
          Preparing all fixed parts of the calculation.
------------------------------------------------------------
  Determining machine precision:
     2.2250738585072014E-308
  Setting up grids for atomic and cluster calculations.

  Creating wave function, potential, and density for free atoms.
  Runtime choices for atomic solver:
  | atomic solver xc        : PBE
  | compute density gradient: 1
  | compute kinetic density : F

  Species: Os

  List of occupied orbitals and eigenvalues:
    n    l              occ      energy [Ha]    energy [eV]
    1    0           2.0000     -2954.181503    -80387.3688
    2    0           2.0000      -480.889185    -13085.6605
    3    0           2.0000      -110.508096     -3007.0783
    4    0           2.0000       -23.222949      -631.9286
    5    0           2.0000        -3.354070       -91.2689
    6    0           2.0000        -0.219382        -5.9697
    2    1           6.0000      -417.993917    -11374.1932
    3    1           6.0000       -92.410428     -2514.6157
    4    1           6.0000       -17.324207      -471.4156
    5    1           6.0000        -1.858854       -50.5820
    3    2          10.0000       -72.289448     -1967.0960
    4    2          10.0000       -10.021122      -272.6886
    5    2           6.0000        -0.223638        -6.0855
    4    3          14.0000        -1.909379       -51.9568


  Adding cutoff potential to free-atom effective potential.
  Creating fixed part of basis set: Ionic, confined, hydrogenic.

  Os                   ion:

  List of free ionic orbitals and eigenvalues:
    n    l      energy [Ha]    energy [eV]
    1    0     -2955.007946    -80409.8574
    2    0      -481.665132    -13106.7751
    3    0      -111.274880     -3027.9436
    4    0       -23.987369      -652.7295
    5    0        -4.112143      -111.8971
    6    0        -0.809889       -22.0382
    2    1      -418.768614    -11395.2738
    3    1       -93.176846     -2535.4710
    4    1       -18.088488      -492.2128
    5    1        -2.609746       -71.0148
    3    2       -73.055693     -1987.9465
    4    2       -10.785212      -293.4806
    5    2        -0.927381       -25.2353
    4    3        -2.672609       -72.7254


  List of ionic basis orbitals and eigenvalues:
    n    l      energy [Ha]    energy [eV]    outer radius [A]
    6    1        -0.535254       -14.5650       4.569363
    5    2        -0.927358       -25.2347       4.043554
    6    0        -0.809785       -22.0354       4.513842


  Os                   hydrogenic:

  List of hydrogenic basis orbitals: 
    n    l      effective z      eigenvalue [eV]  inner max. [A]     outer max. [A]     outer radius [A]   
    4    3         8.200000       -57.1775           1.028319           1.028319           4.194604

  Creating atomic-like basis functions for current effective potential.

  Species Os                  :

  List of atomic basis orbitals and eigenvalues:
    n    l      energy [Ha]    energy [eV]    outer radius [A]
    1    0     -2954.181503    -80387.3688       0.127130
    2    0      -480.889185    -13085.6605       0.329889
    3    0      -110.508096     -3007.0783       0.695396
    4    0       -23.222949      -631.9286       1.465872
    5    0        -3.354070       -91.2689       3.622263
    6    0        -0.219382        -5.9697       4.569363
    2    1      -417.993917    -11374.1932       0.346422
    3    1       -92.410428     -2514.6157       0.739228
    4    1       -17.324207      -471.4156       1.656489
    5    1        -1.858854       -50.5820       4.143637
    3    2       -72.289448     -1967.0960       0.795488
    4    2       -10.021122      -272.6886       2.039133
    5    2        -0.223638        -6.0855       4.513842
    4    3        -1.909379       -51.9568       3.803794

  Assembling full basis from fixed parts.
  | Species Os :   atomic orbital   1 s accepted.
  | Species Os :   atomic orbital   2 s accepted.
  | Species Os :   atomic orbital   3 s accepted.
  | Species Os :   atomic orbital   4 s accepted.
  | Species Os :   atomic orbital   5 s accepted.
  | Species Os :    ionic orbital   6 s accepted.
  | Species Os :   atomic orbital   6 s accepted.
  | Species Os :   atomic orbital   2 p accepted.
  | Species Os :   atomic orbital   3 p accepted.
  | Species Os :   atomic orbital   4 p accepted.
  | Species Os :   atomic orbital   5 p accepted.
  | Species Os :    ionic orbital   6 p accepted.
  | Species Os :   atomic orbital   3 d accepted.
  | Species Os :   atomic orbital   4 d accepted.
  | Species Os :    ionic orbital   5 d accepted.
  | Species Os :   atomic orbital   5 d accepted.
  | Species Os :   atomic orbital   4 f accepted.
  | Species Os :    hydro orbital   4 f accepted.

  Basis size parameters after reduction:
  | Total number of radial functions:       18
  | Total number of basis functions :     2688

  Per-task memory consumption for arrays in subroutine allocate_ext:
  |           6.901472MB.
  Testing on-site integration grid accuracy.
  |  Species  Function  <phi|h_atom|phi> (log., in eV)  <phi|h_atom|phi> (rad., in eV)
           1        1             -80387.3687659668             -80387.0591355878 ***
           1        2             -13085.6605130364             -13085.6546714690
           1        3              -3007.0782806116              -3007.0779842771
           1        4               -631.9285933468               -631.9285722302
           1        5                -91.2688980157                -91.2688962239
           1        6                 -5.5007453373                 -5.5010064542
           1        7                  6.1265938931                  6.0846385560 ***
           1        8             -11374.1931842322             -11374.1931877539
           1        9              -2514.6156896932              -2514.6156876360
           1       10               -471.4156454446               -471.4156407257
           1       11                -50.5820044592                -50.5820034843
           1       12                  0.0871649114                  0.0838546169
           1       13              -1967.0959630475              -1967.0959625990
           1       14               -272.6886004529               -272.6885977166
           1       15                 -5.8813388034                 -5.8814483048
           1       16                  7.7632118093                  7.7774577835
           1       17                -51.9568399235                -51.9568392430
           1       18                 23.1264917595                 23.1265066461
 * Note: Onsite integrals marked "***" above are less accurate than
 * onsite_accuracy_threshold =    0.03000 eV. Usually, this is harmless.
 * However, one integral did have a negative value. This integral could be important.
 * When in doubt, tighten the "radial" and/or "radial_multiplier" flags to check.

  Preparing densities etc. for the partition functions (integrals / Hartree potential).

  Preparations completed.
  max(cpu_time)          :      0.308 s.
  Wall clock time (cpu1) :      0.308 s.
------------------------------------------------------------

  Initializing index lists of integration centers etc. from given atomic structure:
  Mapping all atomic coordinates to central unit cell.

  Initializing the k-points
  Using symmetry for reducing the k-points
  | k-points reduced from:      216 to      112
  | Number of k-points                             :       112
  The eigenvectors in the calculations are COMPLEX.
  | Number of basis functions in the Hamiltonian integrals :     13854
  | Number of basis functions in a single unit cell        :      2688
  | Number of centers in hartree potential         :      1846
  | Number of centers in hartree multipole         :      1098
  | Number of centers in electron density summation:       859
  | Number of centers in basis integrals           :       890
  | Number of centers in integrals                 :       383
  | Number of centers in hamiltonian               :       859
  | Consuming         63 KiB for k_phase.
  | Number of super-cells (origin) [n_cells]                     :         245
  | Number of super-cells (after PM_index) [n_cells]             :          36
  | Number of super-cells in hamiltonian [n_cells_in_hamiltonian]:          36
  | Size of matrix packed + index [n_hamiltonian_matrix_size] :     7492389

------------------------------------------------------------
          Begin self-consistency loop: Initialization.

          Date     :  20230621, Time     :  172926.558
------------------------------------------------------------
  | Estimated reciprocal-space cutoff momentum G_max:         2.74242185 bohr^-1 .
  | Reciprocal lattice points for long-range Hartree potential:    1620
  Using simple linear distribution as default method for k-point parallelism.
  * Using 256 tasks for Scalapack Eigenvalue solver.
  Detailed listing of tasks and assigned k-points:
   Task     0 k-point     1 on nid001312
   Task     1 k-point     1 on nid001312
   Task     2 k-point     1 on nid001312
   Task     3 k-point     2 on nid001312
   Task     4 k-point     2 on nid001312
   Task     5 k-point     3 on nid001312
   Task     6 k-point     3 on nid001312
   Task     7 k-point     4 on nid001312
   Task     8 k-point     4 on nid001312
   Task     9 k-point     4 on nid001312
   Task    10 k-point     5 on nid001312
   Task    11 k-point     5 on nid001312
   Task    12 k-point     6 on nid001312
   Task    13 k-point     6 on nid001312
   Task    14 k-point     7 on nid001312
   Task    15 k-point     7 on nid001312
   Task    16 k-point     8 on nid001312
   Task    17 k-point     8 on nid001312
   Task    18 k-point     8 on nid001312
   Task    19 k-point     9 on nid001312
   Task    20 k-point     9 on nid001312
   Task    21 k-point    10 on nid001312
   Task    22 k-point    10 on nid001312
   Task    23 k-point    11 on nid001312
   Task    24 k-point    11 on nid001312
   Task    25 k-point    11 on nid001312
   Task    26 k-point    12 on nid001312
   Task    27 k-point    12 on nid001312
   Task    28 k-point    13 on nid001312
   Task    29 k-point    13 on nid001312
   Task    30 k-point    14 on nid001312
   Task    31 k-point    14 on nid001312
   Task    32 k-point    15 on nid001312
   Task    33 k-point    15 on nid001312
   Task    34 k-point    15 on nid001312
   Task    35 k-point    16 on nid001312
   Task    36 k-point    16 on nid001312
   Task    37 k-point    17 on nid001312
   Task    38 k-point    17 on nid001312
   Task    39 k-point    18 on nid001312
   Task    40 k-point    18 on nid001312
   Task    41 k-point    18 on nid001312
   Task    42 k-point    19 on nid001312
   Task    43 k-point    19 on nid001312
   Task    44 k-point    20 on nid001312
   Task    45 k-point    20 on nid001312
[...]
  SCF   33 :  0.12E-11 |  0.99E-04 |  -0.85E-01 | -0.42E-04 |             . |       20.646 s |       20.596 s
  SCF   34 :  0.29E-12 |  0.73E-04 |  -0.11E-01 | -0.16E-04 |             . |       20.724 s |       20.674 s
  SCF   35 :  0.10E-12 |  0.64E-04 |   0.33E-01 | -0.28E-04 |             . |       20.711 s |       20.666 s
  SCF   36 :  0.10E-12 |  0.42E-04 |   0.22E-01 | -0.15E-04 |             . |       20.766 s |       20.718 s
  SCF   37 : -0.45E-12 |  0.26E-04 |   0.23E-01 | -0.28E-05 |             . |       20.696 s |       20.650 s
  SCF   38 : -0.13E-11 |  0.23E-04 |   0.11E-01 | -0.38E-05 |             . |       20.762 s |       20.715 s
  SCF   39 :  0.43E-12 |  0.21E-04 |   0.12E-01 | -0.11E-04 |             . |       20.695 s |       20.644 s
  SCF   40 : -0.20E-12 |  0.17E-04 |   0.23E-01 | -0.24E-05 |             . |       20.645 s |       20.597 s
  SCF   41 : -0.60E-12 |  0.16E-04 |   0.40E-01 | -0.17E-05 |             . |       20.731 s |       20.681 s
  SCF   42 :  0.20E-12 |  0.13E-04 |   0.10E-01 | -0.39E-05 |             . |       20.675 s |       20.628 s
  SCF   43 :  0.70E-13 |  0.10E-04 |   0.88E-02 |  0.96E-06 |             . |       20.677 s |       20.616 s
  SCF   44 :  0.80E-13 |  0.77E-05 |  -0.31E-02 | -0.12E-05 |             . |       20.694 s |       20.649 s
  SCF   45 : -0.67E-12 |  0.69E-05 |  -0.69E-02 |  0.19E-05 |             . |       20.699 s |       20.656 s
  SCF   46 : -0.34E-12 |  0.62E-05 |  -0.78E-02 | -0.20E-05 |             . |       20.671 s |       20.608 s
  SCF   47 : -0.59E-14 |  0.46E-05 |  -0.83E-02 | -0.32E-06 |             . |       20.712 s |       20.663 s
  SCF   48 : -0.14E-11 |  0.35E-05 |  -0.15E-02 | -0.15E-05 |             . |       20.689 s |       20.641 s
  SCF   49 :  0.25E-12 |  0.30E-05 |  -0.58E-03 |  0.32E-07 |             . |       20.682 s |       20.630 s
  SCF   50 : -0.86E-12 |  0.24E-05 |  -0.14E-02 | -0.22E-06 |             . |       20.694 s |       20.648 s
  SCF   51 : -0.84E-12 |  0.22E-05 |   0.20E-03 | -0.41E-07 |             . |       20.693 s |       20.649 s
  SCF   52 :  0.11E-12 |  0.20E-05 |   0.38E-02 | -0.51E-06 |             . |       20.674 s |       20.631 s
  SCF   53 : -0.36E-12 |  0.17E-05 |   0.22E-02 | -0.55E-06 |             . |       20.691 s |       20.644 s
  SCF   54 : -0.26E-13 |  0.13E-05 |   0.21E-02 | -0.99E-06 |             . |       20.667 s |       20.618 s
  SCF   55 : -0.85E-12 |  0.11E-05 |   0.95E-03 |  0.36E-06 |             . |       20.686 s |       20.643 s
  SCF   56 : -0.98E-12 |  0.10E-05 |   0.16E-02 | -0.26E-06 |             . |       20.674 s |       20.628 s
  SCF   57 :  0.30E-12 |  0.64E-06 |   0.12E-02 |  0.50E-06 |             . |       20.661 s |       20.615 s
  SCF   58 : -0.86E-12 |  0.47E-06 |   0.56E-04 | -0.29E-06 |      0.10E+02 |       21.072 s |       21.028 s
  SCF   59 :  0.24E-12 |  0.39E-06 |   0.76E-05 | -0.48E-06 |      0.49E-04 |       50.297 s |       50.238 s

  Total energy components:
  | Sum of eigenvalues            :     -536649.98400662 Ha   -14602989.05672287 eV
  | XC energy correction          :      -16479.40752809 Ha     -448427.49457899 eV
  | XC potential correction       :       21553.90157501 Ha      586511.50323288 eV
  | Free-atom electrostatic energy:     -323675.55590609 Ha    -8807660.00501178 eV
  | Hartree energy correction     :         188.42908624 Ha        5127.41631654 eV
  | Entropy correction            :          -0.01068198 Ha          -0.29067160 eV
  | ---------------------------
  | Total energy                  :     -855062.61677954 Ha   -23267437.63676422 eV
  | Total energy, T -> 0          :     -855062.62746153 Ha   -23267437.92743582 eV  <-- do not rely on this value for anything but (periodic) metals
  | Electronic free energy        :     -855062.63814351 Ha   -23267438.21810741 eV

  Derived energy quantities:
  | Kinetic energy                :      950049.27087416 Ha    25852156.00370134 eV
  | Electrostatic energy          :    -1788632.48012561 Ha   -48671166.14588656 eV
  | Energy correction for multipole
  | error in Hartree potential    :           0.04243232 Ha           1.15464212 eV
  | Sum of eigenvalues per atom                           :     -304228.93868173 eV
  | Total energy (T->0) per atom                          :     -484738.29015491 eV  <-- do not rely on this value for anything but (periodic) metals
  | Electronic free energy per atom                       :     -484738.29621057 eV
  What follows are estimated values for band gap, HOMO, LUMO, etc.
  | They are estimated on a discrete k-point grid and not necessarily exact.
  | For converged numbers, create a DOS and/or band structure plot on a denser k-grid.

  Highest occupied state (VBM) at     -6.80696171 eV (relative to internal zero)
  | Occupation number:      1.02225948
  | K-point:      27 at    0.166667    0.166667    0.333333 (in units of recip. lattice)

  Lowest unoccupied state (CBM) at    -6.80184045 eV (relative to internal zero)
  | Occupation number:      0.99336884
  | K-point:      89 at    0.500000    0.500000    0.333333 (in units of recip. lattice)

  ESTIMATED overall HOMO-LUMO gap:      0.00512126 eV between HOMO at k-point 27 and LUMO at k-point 89
  | This appears to be an indirect band gap.
  | Smallest direct gap :      0.00589054 eV for k_point 89 at    0.500000    0.500000    0.333333 (in units of recip. lattice)
  However, this system has fractional occupation numbers. Since we use a finite k-point grid,
  this material is metallic within the approximate finite broadening function (occupation_type)
  applied to determine the occupation numbers.

  | Chemical Potential                          :    -6.80301580 eV
  | Note that, for insulating systems, the printed 'chemical potential' value is not uniquely defined.
  | It can be anywhere in the energy gap, as long as it correctly separates occupied and unoccupied states.
  | In systems with a gap, the physically relevant chemical potential is the VBM or HOMO.

  Self-consistency cycle converged.

  +-------------------------------------------------------------------+
  |              Analytical stress tensor - Symmetrized               |
  |                  Cartesian components [eV/A**3]                   |
  +-------------------------------------------------------------------+
  |                x                y                z                |
  |                                                                   |
  |  x        -0.00376356      -0.00055696       0.00039926           |
  |  y        -0.00055696      -0.00385272      -0.00026725           |
  |  z         0.00039926      -0.00026725      -0.00713608           |
  |                                                                   |
  |  Pressure:       0.00491746   [eV/A**3]                           |
  |                                                                   |
  +-------------------------------------------------------------------+
  Removing unitary transformations (pure translations, rotations) from forces on atoms.
  Atomic forces before filtering:
  | Net force on center of mass :   0.102528E-02 -0.366359E-03  0.124837E-02 eV/A
  Atomic forces after filtering:
  | Net force on center of mass :  -0.624421E-15  0.446015E-15 -0.579820E-15 eV/A

  Energy and forces in a compact form:
  | Total energy uncorrected      :         -0.232674376367642E+08 eV
  | Total energy corrected        :         -0.232674379274358E+08 eV  <-- do not rely on this value for anything but (periodic) metals
  | Electronic free energy        :         -0.232674382181074E+08 eV
  Total atomic forces (unitary forces cleaned) [eV/Ang]:
  |    1          0.974054639431176E+00         -0.533120755386862E+00          0.565727697490347E+00
  |    2         -0.343500928969737E+00          0.687331124104628E+00          0.272689052437267E+00
  |    3         -0.719672582659233E+00         -0.555858813691721E+00          0.651554859567264E+00
  |    4         -0.168167855599489E+00          0.504122756574964E+00          0.781925404583596E-01
  |    5          0.106596201840994E+01         -0.237008116884415E+00          0.698911142742135E+00
  |    6          0.927853170493474E-01         -0.122631222981103E+01         -0.112490431949067E+00
  |    7          0.281734042142986E+00          0.515703349892295E+00         -0.709891879105985E-01
  |    8         -0.465620946834191E+00         -0.268175632950733E+00          0.368884231005864E+00
  |    9         -0.416393633293964E+00          0.316079832734723E+00         -0.111953950257508E+01
  |   10         -0.128383399782982E+00         -0.621378227492249E-01          0.590962468292097E+00
  |   11         -0.903658427119532E+00          0.165388670450914E+00          0.247167000693742E+00
  |   12          0.165588408058007E+00          0.175950563486412E+00          0.143041770039552E+00
  |   13         -0.404078603903187E+00          0.583696033331195E+00         -0.127653951280703E+00
  |   14         -0.628987417283900E+00          0.343365687490506E+00         -0.174833073487439E-01
  |   15          0.299619087710736E+00          0.903164138028940E-01          0.215848991166373E+00
  |   16         -0.935376347986321E+00          0.212690828871956E+00          0.106939993416622E+01
  |   17          0.154628314108173E+00          0.328545204487827E+00         -0.282449125897365E+00
  |   18         -0.111685992475732E+00         -0.793661982668337E+00         -0.263397687131179E+00
  |   19          0.571237882357826E+00          0.106389898452862E+00         -0.172145773874627E+00
  |   20          0.120926205348421E+01          0.485163015371736E+00         -0.492991170159204E-01
  |   21         -0.101005615603977E+01         -0.146632226880904E+00          0.515548554657175E+00
  |   22          0.141615084399457E+00         -0.532157562376637E+00          0.336440317806820E+00
  |   23         -0.277069715617382E+00          0.234572475269485E+00          0.680330139010797E-01
  |   24          0.200495277706581E+00         -0.679996960326691E+00          0.165876614235181E+00
  |   25          0.247015392399078E+00          0.387883949891101E+00         -0.124877072642141E+01
  |   26          0.368114921963780E+00          0.212627044468468E+00          0.103345652664267E+00
  |   27          0.181360132986764E+00         -0.253446800739367E+00          0.184783219529274E+00
  |   28          0.556751011187655E+00         -0.798740661667631E+00         -0.890693158646321E+00
  |   29         -0.990161985261482E+00          0.402202114576822E-01         -0.219030549711917E-01
  |   30         -0.173732279729397E+00          0.795076469381947E+00          0.410104465096081E+00
  |   31          0.271792042434469E+00         -0.362384074651992E+00         -0.172106634032428E+00
  |   32         -0.447040028033490E+00         -0.471782101803819E+00          0.272204386156745E+00
  |   33          0.441547283058511E+00          0.451458995752063E+00         -0.698724369020695E+00
  |   34         -0.520601249270457E+00          0.146144847466085E+00          0.519175569983799E+00
  |   35          0.541060607212528E+00         -0.127273800807640E+00         -0.172080571218573E-01
  |   36         -0.628507806500527E-02          0.253114806798195E+00          0.220153231239711E-01
  |   37         -0.402867939411512E+00         -0.761618740248796E+00         -0.355158428807517E+00
  |   38          0.131327133268254E+00          0.330011099739563E-01         -0.400574310525124E+00
  |   39          0.496361267095603E+00          0.323992655025218E+00         -0.107681414614256E+01
  |   40          0.680592935565019E+00          0.645799130698606E-02         -0.307949667477384E-01
  |   41          0.501061851295363E+00          0.430632106265529E+00         -0.169475983962298E+00
  |   42         -0.261154017678242E+00         -0.278024102322985E+00         -0.410334090067216E-01
  |   43          0.491137754233558E+00          0.525798863801516E+00          0.120655579592953E+01
  |   44         -0.587412644186430E+00         -0.344704155930087E+00         -0.823027743284590E+00
  |   45         -0.286770532398236E+00          0.366881147495051E+00          0.453354474501224E+00
  |   46         -0.142213681373823E+00          0.192156378546473E+00         -0.912354170556792E+00
  |   47         -0.129738060064912E-01         -0.699026064987060E+00          0.230680403513792E+00
  |   48          0.278760791420965E+00          0.217300174933271E+00         -0.316410234927639E+00


------------------------------------------------------------------------------
  Final output of selected total energy values:

  The following output summarizes some interesting total energy values
  at the end of a run (AFTER all relaxation, molecular dynamics, etc.).

  | Total energy of the DFT / Hartree-Fock s.c.f. calculation      :      -23267437.636764221 eV
  | Final zero-broadening corrected energy (caution - metals only) :      -23267437.927435819 eV
  | For reference only, the value of 1 Hartree used in FHI-aims is :             27.211384500 eV
  | For reference only, the overall average (free atom contribution
  | + realspace contribution) of the electrostatic potential after
  | s.c.f. convergence is                                          :            -39.426165934 eV

  Before relying on these values, please be sure to understand exactly which
  total energy value is referred to by a given number. Different objects may
  all carry the same name 'total energy'. Definitions:

  Total energy of the DFT / Hartree-Fock s.c.f. calculation:
  | Note that this energy does not include ANY quantities calculated after the
  | s.c.f. cycle, in particular not ANY RPA, MP2, etc. many-body perturbation terms.

  Final zero-broadening corrected energy:
  | For metallic systems only, a broadening of the occupation numbers at the Fermi
  | level can be extrapolated back to zero broadening by an electron-gas inspired
  | formula. For all systems that are not real metals, this value can be
  | meaningless and should be avoided.

------------------------------------------------------------------------------
  Methods described in the following list of references were used in this FHI-aims run.
  If you publish the results, please make sure to cite these reference if they apply.
  FHI-aims is an academic code, and for our developers (often, Ph.D. students
  and postdocs), scientific credit in the community is essential.
  Thank you for helping us!

  For any use of FHI-aims, please cite:

    Volker Blum, Ralf Gehrke, Felix Hanke, Paula Havu, Ville Havu,
    Xinguo Ren, Karsten Reuter, and Matthias Scheffler
    'Ab initio molecular simulations with numeric atom-centered orbitals'
    Computer Physics Communications 180, 2175-2196 (2009)
    http://doi.org/10.1016/j.cpc.2009.06.022


  For the analytical stress tensor used in your run, please cite:

    Franz Knuth, Christian Carbogno, Viktor Atalla, Volker Blum, Matthias Scheffler
    'All-electron formalism for total energy strain derivatives and
    stress tensor components for numeric atom-centered orbitals'
    Computer Physics Communications 190, 33-50 (2015).
    http://doi.org/10.1016/j.cpc.2015.01.003


  The provided symmetry information was generated with SPGlib:

    Atsushi Togo, Yusuke Seto, Dimitar Pashov
    SPGlib 1.7.3 obtained from http://spglib.sourceforge.net
    Copyright (C) 2008 Atsushi Togo


  The ELSI infrastructure was used in your run to solve the Kohn-Sham electronic structure.
  Please check out http://elsi-interchange.org to learn more.
  If scalability is important for your project, please acknowledge ELSI by citing:

    V. W-z. Yu, F. Corsetti, A. Garcia, W. P. Huhn, M. Jacquelin, W. Jia,
    B. Lange, L. Lin, J. Lu, W. Mi, A. Seifitokaldani, A. Vazquez-Mayagoitia,
    C. Yang, H. Yang, and V. Blum
    'ELSI: A unified software interface for Kohn-Sham electronic structure solvers'
    Computer Physics Communications 222, 267-285 (2018).
    http://doi.org/10.1016/j.cpc.2017.09.007


  For the real-space grid partitioning and parallelization used in this calculation, please cite:

    Ville Havu, Volker Blum, Paula Havu, and Matthias Scheffler,
    'Efficient O(N) integration for all-electron electronic structure calculation'
    'using numerically tabulated basis functions'
    Journal of Computational Physics 228, 8367-8379 (2009).
    http://doi.org/10.1016/j.jcp.2009.08.008

  Of course, there are many other important community references, e.g., those cited in the
  above references. Our list is limited to references that describe implementations in the
  FHI-aims code. The reason is purely practical (length of this list) - please credit others as well.

 * A warning was issued further up regarding the accuracy of onsite integrals.
   An integral with a negative eigenvalue was among the flagged integrals.
   In most standard situations, this warning is probably harmless.
   If needed, this can be verified by adjusting the radial_multiplier flag.

   One or more s.c.f. cycles took more than 50 s.c.f. iterations.
   It might be worth adjusting your convergence settings. For example,
   metals need a larger broadening and a smaller "charge_mix_param" value than semiconductors.

------------------------------------------------------------
          Leaving FHI-aims.
          Date     :  20230621, Time     :  175049.916

          Computational steps:
          | Number of self-consistency cycles          :           59
          | Number of SCF (re)initializations          :            1

          Detailed time accounting                     :  max(cpu_time)    wall_clock(cpu1)
          | Total time                                  :     1284.141 s        1284.256 s
          | Preparation time                            :        0.308 s           0.308 s
          | Boundary condition initalization            :        0.411 s           0.411 s
          | Grid partitioning                           :        0.161 s           0.160 s
          | Preloading free-atom quantities on grid     :        0.121 s           0.121 s
          | Free-atom superposition energy              :        0.015 s           0.015 s
          | Total time for integrations                 :       60.258 s          60.257 s
          | Total time for solution of K.-S. equations  :      978.221 s         977.332 s
          | Total time for density & force components   :      218.447 s         218.431 s
          | Total time for mixing & preconditioning     :       12.164 s           9.434 s
          | Total time for Hartree multipole update     :        0.397 s           0.404 s
          | Total time for Hartree multipole sum        :        9.829 s           9.823 s
          | Total time for total energy evaluation      :        0.408 s           0.401 s
          | Total time NSC force correction             :        0.468 s           0.468 s
          | Total time for scaled ZORA corrections      :        0.000 s           0.000 s

          Partial memory accounting:
          | Residual value for overall tracked memory usage across tasks:     0.000000 MB (should be 0.000000 MB)
          | Peak values for overall tracked memory usage:
          |   Minimum:      296.435 MB (on task   0 after allocating temp_ham_ovlp)
          |   Maximum:      351.560 MB (on task   3 after allocating temp_ham_ovlp)
          |   Average:      330.888 MB
          | Largest tracked array allocation:
          |   Minimum:       57.162 MB (overlap_matrix on task   0)
          |   Maximum:       57.162 MB (overlap_matrix on task   0)
          |   Average:       57.162 MB
          Note:  These values currently only include a subset of arrays which are explicitly tracked.
          The "true" memory usage will be greater.

          Have a nice day.
------------------------------------------------------------
